S0                                                                      
Freq      RB3LYP                                                      Gen                 
Number of atoms                            I               10
Info1-9                                    I   N=           9
          11          11           0           0           0         100
           6          18        -502
Full Title                                 C   N=           1
S0          
Route                                      C   N=           5
#P B3LYP/ChkBasis 6D 10F Freq=HPModes Geom=Check Guess=Read 
Charge                                     I                0
Multiplicity                               I                1
Number of electrons                        I               32
Number of alpha electrons                  I               16
Number of beta electrons                   I               16
Number of basis functions                  I               72
Number of independent functions            I               72
Number of point charges in /Mol/           I                0
Number of translation vectors              I                0
Atomic numbers                             I   N=          10
           6           8           6           1           1           1
           6           1           1           1
Nuclear charges                            R   N=          10
  6.00000000E+00  8.00000000E+00  6.00000000E+00  1.00000000E+00  1.00000000E+00
  1.00000000E+00  6.00000000E+00  1.00000000E+00  1.00000000E+00  1.00000000E+00
Current cartesian coordinates              R   N=          30
  9.45176494E-33  2.07868374E-32  3.49997837E-01 -1.46785711E-31  1.86439500E-31
  2.64744995E+00 -1.04446346E-30  2.44350938E+00 -1.16164085E+00 -1.60888026E-30
  4.06028346E+00  1.19804710E-01  1.66470496E+00  2.53503137E+00 -2.39487646E+00
 -1.66470496E+00  2.53503137E+00 -2.39487646E+00 -2.99243594E-16 -2.44350938E+00
 -1.16164085E+00 -1.66470496E+00 -2.53503137E+00 -2.39487646E+00  1.66470496E+00
 -2.53503137E+00 -2.39487646E+00 -4.97241314E-16 -4.06028346E+00  1.19804710E-01
Number of symbols in /Mol/                 I                0
Int Atom Types                             I   N=          10
           0           0           0           0           0           0
           0           0           0           0
Force Field                                I                0
Atom Types                                 C   N=          10
                                                            
                                                            
MM charges                                 R   N=          10
  0.00000000E+00  0.00000000E+00  0.00000000E+00  0.00000000E+00  0.00000000E+00
  0.00000000E+00  0.00000000E+00  0.00000000E+00  0.00000000E+00  0.00000000E+00
Integer atomic weights                     I   N=          10
          12          16          12           1           1           1
          12           1           1           1
Real atomic weights                        R   N=          10
  1.20000000E+01  1.59949146E+01  1.20000000E+01  1.00782504E+00  1.00782504E+00
  1.00782504E+00  1.20000000E+01  1.00782504E+00  1.00782504E+00  1.00782504E+00
Atom fragment info                         I   N=          10
           0           0           0           0           0           0
           0           0           0           0
Atom residue num                           I   N=          10
           0           0           0           0           0           0
           0           0           0           0
Nuclear spins                              I   N=          10
           0           0           0           1           1           1
           0           1           1           1
Nuclear ZEff                               R   N=          10
 -3.60000000E+00 -5.60000000E+00 -3.60000000E+00 -1.00000000E+00 -1.00000000E+00
 -1.00000000E+00 -3.60000000E+00 -1.00000000E+00 -1.00000000E+00 -1.00000000E+00
Nuclear ZNuc                               R   N=          10
  6.00000000E+00  8.00000000E+00  6.00000000E+00  1.00000000E+00  1.00000000E+00
  1.00000000E+00  6.00000000E+00  1.00000000E+00  1.00000000E+00  1.00000000E+00
Nuclear QMom                               R   N=          10
  0.00000000E+00  0.00000000E+00  0.00000000E+00  0.00000000E+00  0.00000000E+00
  0.00000000E+00  0.00000000E+00  0.00000000E+00  0.00000000E+00  0.00000000E+00
Nuclear GFac                               R   N=          10
  0.00000000E+00  0.00000000E+00  0.00000000E+00  2.79284600E+00  2.79284600E+00
  2.79284600E+00  0.00000000E+00  2.79284600E+00  2.79284600E+00  2.79284600E+00
MicOpt                                     I   N=          10
          -1          -1          -1          -1          -1          -1
          -1          -1          -1          -1
Number of residues                         I                0
Number of secondary structures             I                0
Redundant internal dimensions              I   N=           4
          36           9          15          12
Redundant internal coordinate indices      I   N=         144
           1           2           0           0           1           3
           0           0           1           7           0           0
           3           4           0           0           3           5
           0           0           3           6           0           0
           7           8           0           0           7           9
           0           0           7          10           0           0
           2           1           3           0           2           1
           7           0           3           1           7           0
           1           3           4           0           1           3
           5           0           1           3           6           0
           4           3           5           0           4           3
           6           0           5           3           6           0
           1           7           8           0           1           7
           9           0           1           7          10           0
           8           7           9           0           8           7
          10           0           9           7          10           0
           2           1           3           4           2           1
           3           5           2           1           3           6
           7           1           3           4           7           1
           3           5           7           1           3           6
           2           1           7           8           2           1
           7           9           2           1           7          10
           3           1           7           8           3           1
           7           9           3           1           7          10
Redundant internal coordinates             R   N=          36
  2.29745211E+00  2.87328899E+00  2.87328899E+00  2.06302233E+00  2.07376202E+00
  2.07376202E+00  2.07376202E+00  2.07376202E+00  2.06302233E+00  2.12480495E+00
  2.12480495E+00  2.03357541E+00  1.91737523E+00  1.92879034E+00  1.92879034E+00
  1.91219097E+00  1.91219097E+00  1.86377318E+00  1.92879034E+00  1.92879034E+00
  1.91737523E+00  1.86377318E+00  1.91219097E+00  1.91219097E+00 -0.00000000E+00
  2.11200983E+00 -2.11200983E+00  3.14159265E+00 -1.02958283E+00  1.02958283E+00
  2.11200983E+00 -2.11200983E+00  0.00000000E+00 -1.02958283E+00  1.02958283E+00
  3.14159265E+00
ZRed-IntVec                                I   N=          36
           0           0           0           0           0           0
           0           0           0           0           0           0
           0           0           0           0           0           0
           0           0           0           0           0           0
           0           0           0           0           0           0
           0           0           0           0           0           0
ZRed-FPVec                                 R   N=          36
  0.00000000E+00  0.00000000E+00  0.00000000E+00  0.00000000E+00  0.00000000E+00
  0.00000000E+00  0.00000000E+00  0.00000000E+00  0.00000000E+00  0.00000000E+00
  0.00000000E+00  0.00000000E+00  0.00000000E+00  0.00000000E+00  0.00000000E+00
  0.00000000E+00  0.00000000E+00  0.00000000E+00  0.00000000E+00  0.00000000E+00
  0.00000000E+00  0.00000000E+00  0.00000000E+00  0.00000000E+00  0.00000000E+00
  0.00000000E+00  0.00000000E+00  0.00000000E+00  0.00000000E+00  0.00000000E+00
  0.00000000E+00  0.00000000E+00  0.00000000E+00  0.00000000E+00  0.00000000E+00
  0.00000000E+00
ZRed-Constraint1                           R   N=          36
  2.29745211E+00  2.87328899E+00  2.87328899E+00  2.06302233E+00  2.07376202E+00
  2.07376202E+00  2.07376202E+00  2.07376202E+00  2.06302233E+00  2.12480495E+00
  2.12480495E+00  2.03357541E+00  1.91737523E+00  1.92879034E+00  1.92879034E+00
  1.91219097E+00  1.91219097E+00  1.86377318E+00  1.92879034E+00  1.92879034E+00
  1.91737523E+00  1.86377318E+00  1.91219097E+00  1.91219097E+00  0.00000000E+00
  2.11200983E+00 -2.11200983E+00  3.14159265E+00 -1.02958283E+00  1.02958283E+00
  2.11200983E+00 -2.11200983E+00  0.00000000E+00 -1.02958283E+00  1.02958283E+00
  3.14159265E+00
ZRed-Constraint2                           R   N=          36
  2.21856663E+00  2.89488492E+00  2.89488492E+00  2.02200332E+00  2.02201087E+00
  2.02201087E+00  2.02201087E+00  2.02201087E+00  2.02200332E+00  1.96884398E+00
  1.96884398E+00  2.34549734E+00  1.90842487E+00  1.91172061E+00  1.91172061E+00
  1.90898937E+00  1.90898937E+00  1.91394269E+00  1.91172061E+00  1.91172061E+00
  1.90842487E+00  1.91394269E+00  1.90898937E+00  1.90898937E+00  0.00000000E+00
  2.09169661E+00 -2.09169661E+00  3.14159265E+00 -1.04989604E+00  1.04989604E+00
  2.09169661E+00 -2.09169661E+00  0.00000000E+00 -1.04989604E+00  1.04989604E+00
  3.14159265E+00
SymInf integers                            I   N=          26
           4           4           1           1           1          -1
          -1           1          -1           1           1           1
          -1           1           0           0           0           0
           0           0           0           0           0           0
           0           0
RotTr to input orientation                 R   N=          12
 -1.00000000E+00  1.21176918E-15 -1.70643370E-16 -1.21176918E-15 -1.00000000E+00
  8.44375141E-16 -1.70643370E-16  8.44375141E-16  1.00000000E+00  6.87957063E-16
 -6.43780841E-17  4.44793369E-01
Number of contracted shells                I               28
Number of primitive shells                 I               68
Pure/Cartesian d shells                    I                1
Pure/Cartesian f shells                    I                1
Highest angular momentum                   I                2
Largest degree of contraction              I                6
Shell types                                I   N=          28
           0          -1          -1           2           0          -1
          -1           2           0          -1          -1           2
           0           0           0           0           0           0
           0          -1          -1           2           0           0
           0           0           0           0
Number of primitives per shell             I   N=          28
           6           3           1           1           6           3
           1           1           6           3           1           1
           3           1           3           1           3           1
           6           3           1           1           3           1
           3           1           3           1
Shell to atom map                          I   N=          28
           1           1           1           1           2           2
           2           2           3           3           3           3
           4           4           5           5           6           6
           7           7           7           7           8           8
           9           9          10          10
Primitive exponents                        R   N=          68
  3.04752488E+03  4.57369518E+02  1.03948685E+02  2.92101553E+01  9.28666296E+00
  3.16392696E+00  7.86827235E+00  1.88128854E+00  5.44249258E-01  1.68714478E-01
  8.00000000E-01  5.48467166E+03  8.25234946E+02  1.88046958E+02  5.29645000E+01
  1.68975704E+01  5.79963534E+00  1.55396162E+01  3.59993359E+00  1.01376175E+00
  2.70005823E-01  8.00000000E-01  3.04752488E+03  4.57369518E+02  1.03948685E+02
  2.92101553E+01  9.28666296E+00  3.16392696E+00  7.86827235E+00  1.88128854E+00
  5.44249258E-01  1.68714478E-01  8.00000000E-01  1.87311370E+01  2.82539436E+00
  6.40121692E-01  1.61277759E-01  1.87311370E+01  2.82539436E+00  6.40121692E-01
  1.61277759E-01  1.87311370E+01  2.82539436E+00  6.40121692E-01  1.61277759E-01
  3.04752488E+03  4.57369518E+02  1.03948685E+02  2.92101553E+01  9.28666296E+00
  3.16392696E+00  7.86827235E+00  1.88128854E+00  5.44249258E-01  1.68714478E-01
  8.00000000E-01  1.87311370E+01  2.82539436E+00  6.40121692E-01  1.61277759E-01
  1.87311370E+01  2.82539436E+00  6.40121692E-01  1.61277759E-01  1.87311370E+01
  2.82539436E+00  6.40121692E-01  1.61277759E-01
Contraction coefficients                   R   N=          68
  1.83473713E-03  1.40373228E-02  6.88426223E-02  2.32184443E-01  4.67941348E-01
  3.62311985E-01 -1.19332420E-01 -1.60854152E-01  1.14345644E+00  1.00000000E+00
  1.00000000E+00  1.83107443E-03  1.39501722E-02  6.84450781E-02  2.32714336E-01
  4.70192898E-01  3.58520853E-01 -1.10777550E-01 -1.48026263E-01  1.13076702E+00
  1.00000000E+00  1.00000000E+00  1.83473713E-03  1.40373228E-02  6.88426223E-02
  2.32184443E-01  4.67941348E-01  3.62311985E-01 -1.19332420E-01 -1.60854152E-01
  1.14345644E+00  1.00000000E+00  1.00000000E+00  3.34946043E-02  2.34726953E-01
  8.13757326E-01  1.00000000E+00  3.34946043E-02  2.34726953E-01  8.13757326E-01
  1.00000000E+00  3.34946043E-02  2.34726953E-01  8.13757326E-01  1.00000000E+00
  1.83473713E-03  1.40373228E-02  6.88426223E-02  2.32184443E-01  4.67941348E-01
  3.62311985E-01 -1.19332420E-01 -1.60854152E-01  1.14345644E+00  1.00000000E+00
  1.00000000E+00  3.34946043E-02  2.34726953E-01  8.13757326E-01  1.00000000E+00
  3.34946043E-02  2.34726953E-01  8.13757326E-01  1.00000000E+00  3.34946043E-02
  2.34726953E-01  8.13757326E-01  1.00000000E+00
P(S=P) Contraction coefficients            R   N=          68
  0.00000000E+00  0.00000000E+00  0.00000000E+00  0.00000000E+00  0.00000000E+00
  0.00000000E+00  6.89990666E-02  3.16423961E-01  7.44308291E-01  1.00000000E+00
  0.00000000E+00  0.00000000E+00  0.00000000E+00  0.00000000E+00  0.00000000E+00
  0.00000000E+00  0.00000000E+00  7.08742682E-02  3.39752839E-01  7.27158577E-01
  1.00000000E+00  0.00000000E+00  0.00000000E+00  0.00000000E+00  0.00000000E+00
  0.00000000E+00  0.00000000E+00  0.00000000E+00  6.89990666E-02  3.16423961E-01
  7.44308291E-01  1.00000000E+00  0.00000000E+00  0.00000000E+00  0.00000000E+00
  0.00000000E+00  0.00000000E+00  0.00000000E+00  0.00000000E+00  0.00000000E+00
  0.00000000E+00  0.00000000E+00  0.00000000E+00  0.00000000E+00  0.00000000E+00
  0.00000000E+00  0.00000000E+00  0.00000000E+00  0.00000000E+00  0.00000000E+00
  0.00000000E+00  6.89990666E-02  3.16423961E-01  7.44308291E-01  1.00000000E+00
  0.00000000E+00  0.00000000E+00  0.00000000E+00  0.00000000E+00  0.00000000E+00
  0.00000000E+00  0.00000000E+00  0.00000000E+00  0.00000000E+00  0.00000000E+00
  0.00000000E+00  0.00000000E+00  0.00000000E+00
Coordinates of each shell                  R   N=          84
  9.45176494E-33  2.07868374E-32  3.49997837E-01  9.45176494E-33  2.07868374E-32
  3.49997837E-01  9.45176494E-33  2.07868374E-32  3.49997837E-01  9.45176494E-33
  2.07868374E-32  3.49997837E-01 -4.81780981E-32  1.86439500E-31  2.64744995E+00
 -4.81780981E-32  1.86439500E-31  2.64744995E+00 -4.81780981E-32  1.86439500E-31
  2.64744995E+00 -4.81780981E-32  1.86439500E-31  2.64744995E+00 -6.50033009E-31
  2.44350938E+00 -1.16164085E+00 -6.50033009E-31  2.44350938E+00 -1.16164085E+00
 -6.50033009E-31  2.44350938E+00 -1.16164085E+00 -6.50033009E-31  2.44350938E+00
 -1.16164085E+00 -8.20019358E-31  4.06028346E+00  1.19804710E-01 -8.20019358E-31
  4.06028346E+00  1.19804710E-01  1.66470496E+00  2.53503137E+00 -2.39487646E+00
  1.66470496E+00  2.53503137E+00 -2.39487646E+00 -1.66470496E+00  2.53503137E+00
 -2.39487646E+00 -1.66470496E+00  2.53503137E+00 -2.39487646E+00 -2.99243594E-16
 -2.44350938E+00 -1.16164085E+00 -2.99243594E-16 -2.44350938E+00 -1.16164085E+00
 -2.99243594E-16 -2.44350938E+00 -1.16164085E+00 -2.99243594E-16 -2.44350938E+00
 -1.16164085E+00 -1.66470496E+00 -2.53503137E+00 -2.39487646E+00 -1.66470496E+00
 -2.53503137E+00 -2.39487646E+00  1.66470496E+00 -2.53503137E+00 -2.39487646E+00
  1.66470496E+00 -2.53503137E+00 -2.39487646E+00 -4.97241314E-16 -4.06028346E+00
  1.19804710E-01 -4.97241314E-16 -4.06028346E+00  1.19804710E-01
Num ILSW                                   I              100
ILSW                                       I   N=         100
           0           1           0           0           2           0
           0           0           0           0         402          -1
           5           0           0           1           2           0
           0           0           0           0           1           0
           1           0           0           0           0           0
           0           0      100000           0          -1           0
           0           0           0           0           0           0
           0           0           0           1           0           0
           0 -2000000000           1           0           0           0
           0           0           4          52           0           0
           0           0           5           0           0           0
           0           0           0          10           0           1
           0           0           0           0           0           0
           0           0           0           0           0           0
           0           0           0           0           0           0
           0           0           0           0           0           0
           0           0           0           0
Num RLSW                                   I               52
RLSW                                       R   N=          52
  8.00000000E-01  7.20000000E-01  1.00000000E+00  8.10000000E-01  2.00000000E-01
  0.00000000E+00  0.00000000E+00  1.00000000E+00  0.00000000E+00  0.00000000E+00
  0.00000000E+00  0.00000000E+00  1.00000000E+00  0.00000000E+00  0.00000000E+00
  0.00000000E+00  0.00000000E+00  1.00000000E+00  0.00000000E+00  0.00000000E+00
  0.00000000E+00  0.00000000E+00  1.00000000E+00  0.00000000E+00  0.00000000E+00
  0.00000000E+00  0.00000000E+00  1.00000000E+00  0.00000000E+00  0.00000000E+00
  0.00000000E+00  0.00000000E+00  1.00000000E+00  0.00000000E+00  0.00000000E+00
  0.00000000E+00  0.00000000E+00  0.00000000E+00  1.00000000E+00  1.00000000E+00
  0.00000000E+00  1.00000000E+00  0.00000000E+00  0.00000000E+00  0.00000000E+00
  0.00000000E+00  0.00000000E+00  0.00000000E+00  0.00000000E+00  0.00000000E+00
  0.00000000E+00  0.00000000E+00
MxBond                                     I                4
NBond                                      I   N=          10
           3           1           4           1           1           1
           4           1           1           1
IBond                                      I   N=          40
           2           3           7           0           1           0
           0           0           1           4           5           6
           3           0           0           0           3           0
           0           0           3           0           0           0
           1           8           9          10           7           0
           0           0           7           0           0           0
           7           0           0           0
RBond                                      R   N=          40
  2.00000000E+00  1.00000000E+00  1.00000000E+00  0.00000000E+00  2.00000000E+00
  0.00000000E+00  0.00000000E+00  0.00000000E+00  1.00000000E+00  1.00000000E+00
  1.00000000E+00  1.00000000E+00  1.00000000E+00  0.00000000E+00  0.00000000E+00
  0.00000000E+00  1.00000000E+00  0.00000000E+00  0.00000000E+00  0.00000000E+00
  1.00000000E+00  0.00000000E+00  0.00000000E+00  0.00000000E+00  1.00000000E+00
  1.00000000E+00  1.00000000E+00  1.00000000E+00  1.00000000E+00  0.00000000E+00
  0.00000000E+00  0.00000000E+00  1.00000000E+00  0.00000000E+00  0.00000000E+00
  0.00000000E+00  1.00000000E+00  0.00000000E+00  0.00000000E+00  0.00000000E+00
Virial Ratio                               R      2.009460639310886E+00
SCF Energy                                 R     -1.931556928502422E+02
Total Energy                               R     -1.931556928502422E+02
RMS Force                                  R      4.750347490104442E-05
RMS Density                                R      4.584187034010465E-09
NImag                                      I                0
Job Status                                 I                1
Nuclear derivative order                   I                2
Thermal Energy                             R     -1.930661950539879E+02
Thermal Enthalpy                           R     -1.930652508691743E+02
Thermal Free Energy                        R     -1.930993047774275E+02
External E-field                           R   N=          35
  0.00000000E+00  0.00000000E+00  0.00000000E+00  0.00000000E+00  0.00000000E+00
  0.00000000E+00  0.00000000E+00  0.00000000E+00  0.00000000E+00  0.00000000E+00
  0.00000000E+00  0.00000000E+00  0.00000000E+00  0.00000000E+00  0.00000000E+00
  0.00000000E+00  0.00000000E+00  0.00000000E+00  0.00000000E+00  0.00000000E+00
  0.00000000E+00  0.00000000E+00  0.00000000E+00  0.00000000E+00  0.00000000E+00
  0.00000000E+00  0.00000000E+00  0.00000000E+00  0.00000000E+00  0.00000000E+00
  0.00000000E+00  0.00000000E+00  0.00000000E+00  0.00000000E+00  0.00000000E+00
IOpCl                                      I                0
IROHF                                      I                0
Alpha Orbital Energies                     R   N=          72
 -1.91357852E+01 -1.02776460E+01 -1.01907731E+01 -1.01907621E+01 -1.03554656E+00
 -7.66946663E-01 -7.09737929E-01 -5.30821253E-01 -4.57857639E-01 -4.57559014E-01
 -4.47715079E-01 -4.03990527E-01 -3.92954917E-01 -3.78530798E-01 -3.46938601E-01
 -2.44180337E-01 -1.11735282E-02  8.79273556E-02  1.37449746E-01  1.48158434E-01
  1.61061310E-01  1.70775448E-01  1.80383468E-01  1.98198539E-01  2.90243405E-01
  3.23490700E-01  4.92114022E-01  5.36682726E-01  5.64760227E-01  5.73749751E-01
  5.76141439E-01  6.91971176E-01  7.01457461E-01  7.07203986E-01  7.70994869E-01
  7.84572958E-01  8.33093692E-01  8.74717460E-01  8.85320772E-01  8.98251602E-01
  9.20288285E-01  9.37979853E-01  9.60304827E-01  1.01831009E+00  1.10020383E+00
  1.17890058E+00  1.40539728E+00  1.42000710E+00  1.42767604E+00  1.56255247E+00
  1.76502077E+00  1.77734630E+00  1.79039116E+00  1.80503139E+00  1.90981305E+00
  1.93372443E+00  2.02740951E+00  2.07303941E+00  2.11781090E+00  2.19827226E+00
  2.20715899E+00  2.36088025E+00  2.40895870E+00  2.48341497E+00  2.59688638E+00
  2.69179803E+00  2.95610626E+00  2.97622835E+00  3.94544192E+00  4.08806975E+00
  4.27030603E+00  4.44325830E+00
Alpha MO coefficients                      R   N=        5184
 -1.14380601E-05  4.02502938E-04  0.00000000E+00  0.00000000E+00 -3.42694108E-05
 -2.72874490E-03  0.00000000E+00  0.00000000E+00 -4.02966160E-03 -5.23610415E-05
 -3.23049485E-05 -9.18552838E-04  0.00000000E+00  0.00000000E+00  0.00000000E+00
  9.92720351E-01  2.55495395E-02  0.00000000E+00  0.00000000E+00 -1.14008266E-03
  1.47521572E-02  0.00000000E+00  0.00000000E+00 -1.86927611E-03 -8.24705474E-03
 -8.22032981E-03 -7.64023138E-03  0.00000000E+00  0.00000000E+00  0.00000000E+00
  8.12132533E-06  8.67676608E-05  0.00000000E+00 -1.19017777E-05 -9.99926740E-06
 -7.03578765E-04  0.00000000E+00  7.45990408E-04  4.38492619E-04 -4.64474308E-06
 -4.13982867E-05  1.45715417E-05  0.00000000E+00  0.00000000E+00  5.48459361E-06
  1.44960755E-05 -3.61690678E-04  2.82626413E-05  1.12077333E-04  2.82626413E-05
  1.12077333E-04  8.12132533E-06  8.67676608E-05  0.00000000E+00  1.19017777E-05
 -9.99926740E-06 -7.03578765E-04  0.00000000E+00 -7.45990408E-04  4.38492619E-04
 -4.64474308E-06 -4.13982867E-05  1.45715417E-05  0.00000000E+00  0.00000000E+00
 -5.48459361E-06  2.82626413E-05  1.12077333E-04  2.82626413E-05  1.12077333E-04
  1.44960755E-05 -3.61690678E-04  9.92929338E-01  4.87139420E-02  0.00000000E+00
  0.00000000E+00  7.72765817E-04 -1.02633213E-02  0.00000000E+00  0.00000000E+00
  4.74580987E-03 -9.45340418E-03 -9.30346308E-03 -8.19159527E-03  0.00000000E+00
  0.00000000E+00  0.00000000E+00 -9.96021586E-05  5.72990945E-04  0.00000000E+00
  0.00000000E+00  3.92514292E-05 -3.95153192E-03  0.00000000E+00  0.00000000E+00
  2.23275752E-03  5.54585834E-04  3.73089194E-04 -2.58149799E-04  0.00000000E+00
  0.00000000E+00  0.00000000E+00  1.20775360E-03 -1.00195273E-04  0.00000000E+00
  1.83304009E-04 -1.98439525E-04  3.72178469E-03  0.00000000E+00 -2.00026069E-03
  5.00125357E-04 -5.58531057E-05 -3.01305598E-04 -3.44269523E-04  0.00000000E+00
  0.00000000E+00  2.23105576E-04 -7.30084167E-05  1.83132365E-04 -1.69228899E-04
  1.53948346E-04 -1.69228899E-04  1.53948346E-04  1.20775360E-03 -1.00195273E-04
  0.00000000E+00 -1.83304009E-04 -1.98439525E-04  3.72178469E-03  0.00000000E+00
  2.00026069E-03  5.00125357E-04 -5.58531057E-05 -3.01305598E-04 -3.44269523E-04
  0.00000000E+00  0.00000000E+00 -2.23105576E-04 -1.69228899E-04  1.53948346E-04
 -1.69228899E-04  1.53948346E-04 -7.30084167E-05  1.83132365E-04  0.00000000E+00
  0.00000000E+00  0.00000000E+00 -2.67986776E-04  0.00000000E+00  0.00000000E+00
  0.00000000E+00  4.70938265E-03  0.00000000E+00  0.00000000E+00  0.00000000E+00
  0.00000000E+00  0.00000000E+00  0.00000000E+00  2.24172438E-04  0.00000000E+00
  0.00000000E+00  0.00000000E+00  2.89292549E-05  0.00000000E+00  0.00000000E+00
  0.00000000E+00 -7.18637885E-04  0.00000000E+00  0.00000000E+00  0.00000000E+00
  0.00000000E+00  0.00000000E+00  0.00000000E+00  9.93676166E-05  7.02130453E-01
  3.58392004E-02  0.00000000E+00 -1.63488286E-04 -1.64829034E-04 -1.40055284E-02
  0.00000000E+00  1.45824651E-03 -4.99175878E-04 -6.38117349E-03 -6.47798391E-03
 -6.50870764E-03  0.00000000E+00  0.00000000E+00  9.24066144E-05  1.40183233E-05
  1.64381137E-03  5.41752119E-05  2.16852559E-03  5.41752119E-05  2.16852559E-03
 -7.02130453E-01 -3.58392004E-02  0.00000000E+00 -1.63488286E-04  1.64829034E-04
  1.40055284E-02  0.00000000E+00  1.45824651E-03  4.99175878E-04  6.38117349E-03
  6.47798391E-03  6.50870764E-03  0.00000000E+00  0.00000000E+00  9.24066144E-05
 -5.41752119E-05 -2.16852559E-03 -5.41752119E-05 -2.16852559E-03 -1.40183233E-05
 -1.64381137E-03 -2.02150332E-03 -3.67136097E-04  0.00000000E+00  0.00000000E+00
  3.43274200E-05  5.40658217E-03  0.00000000E+00  0.00000000E+00 -1.26396642E-03
 -1.89003346E-04 -4.92014930E-04 -3.13071206E-04  0.00000000E+00  0.00000000E+00
  0.00000000E+00 -2.71292453E-05 -1.56872664E-04  0.00000000E+00  0.00000000E+00
  2.93369537E-05  1.92439215E-04  0.00000000E+00  0.00000000E+00 -1.61001575E-04
 -2.14562220E-04 -2.72581931E-05  4.67891120E-05  0.00000000E+00  0.00000000E+00
  0.00000000E+00  7.02027446E-01  3.53366020E-02  0.00000000E+00  6.33747370E-06
 -3.64247372E-05 -1.13126178E-02  0.00000000E+00  2.88719543E-04 -4.00071474E-04
 -6.58309628E-03 -6.58350467E-03 -6.56617497E-03  0.00000000E+00  0.00000000E+00
  2.98866708E-05 -4.38591802E-05  2.08976499E-03 -8.73967693E-05  1.76621894E-03
 -8.73967693E-05  1.76621894E-03  7.02027446E-01  3.53366020E-02  0.00000000E+00
 -6.33747370E-06 -3.64247372E-05 -1.13126178E-02  0.00000000E+00 -2.88719543E-04
 -4.00071474E-04 -6.58309628E-03 -6.58350467E-03 -6.56617497E-03  0.00000000E+00
  0.00000000E+00 -2.98866708E-05 -8.73967693E-05  1.76621894E-03 -8.73967693E-05
  1.76621894E-03 -4.38591802E-05  2.08976499E-03 -1.20418794E-01  2.32821335E-01
  0.00000000E+00  0.00000000E+00  1.79991367E-01  8.43605474E-02  0.00000000E+00
  0.00000000E+00 -4.35915273E-02 -1.98898036E-02 -1.90905848E-02  2.21794398E-02
  0.00000000E+00  0.00000000E+00  0.00000000E+00 -1.93430862E-01  4.18885451E-01
  0.00000000E+00  0.00000000E+00 -1.61728446E-01  4.03122607E-01  0.00000000E+00
  0.00000000E+00 -5.76913459E-02 -6.92701774E-03 -1.16234090E-02  9.88027464E-03
  0.00000000E+00  0.00000000E+00  0.00000000E+00 -1.84142125E-02  3.38514491E-02
  0.00000000E+00 -1.87741901E-02  1.91593129E-02  5.75605230E-03  0.00000000E+00
  9.22738146E-03  9.60817449E-03 -1.19710709E-03  3.15295901E-03  3.34161986E-03
  0.00000000E+00  0.00000000E+00 -4.79730885E-03  8.15558061E-03 -2.60239329E-03
  6.14952187E-03  1.23325300E-03  6.14952187E-03  1.23325300E-03 -1.84142125E-02
  3.38514491E-02  0.00000000E+00  1.87741901E-02  1.91593129E-02  5.75605230E-03
  0.00000000E+00 -9.22738146E-03  9.60817449E-03 -1.19710709E-03  3.15295901E-03
  3.34161986E-03  0.00000000E+00  0.00000000E+00  4.79730885E-03  6.14952187E-03
  1.23325300E-03  6.14952187E-03  1.23325300E-03  8.15558061E-03 -2.60239329E-03
 -8.58024097E-02  1.72987461E-01  0.00000000E+00  0.00000000E+00 -1.82096480E-01
  1.23919382E-01  0.00000000E+00  0.00000000E+00 -4.33706422E-02 -6.13541801E-03
  1.35802614E-02 -1.21459851E-02  0.00000000E+00  0.00000000E+00  0.00000000E+00
  6.48738440E-02 -1.48080096E-01  0.00000000E+00  0.00000000E+00  8.22668623E-04
 -1.48514099E-01  0.00000000E+00  0.00000000E+00 -9.54893796E-03 -4.54388668E-04