S0                                                                      
SP        RB3LYP TD-FC                                                Gen                 
Number of atoms                            I               10
Info1-9                                    I   N=           9
          12          12           0           0           0         111
           1         218        -501
Full Title                                 C   N=           1
S0          
Route                                      C   N=           7
#P B3LYP/ChkBasis TD(50-50, Nstates=5) 6D 10F Geom=Check Gue
ss=Read IOP(9/40=4)     
Charge                                     I                0
Multiplicity                               I                1
Number of electrons                        I               32
Number of alpha electrons                  I               16
Number of beta electrons                   I               16
Number of basis functions                  I               72
Number of independent functions            I               72
Number of point charges in /Mol/           I                0
Number of translation vectors              I                0
Atomic numbers                             I   N=          10
           6           8           6           1           1           1
           6           1           1           1
Nuclear charges                            R   N=          10
  6.00000000E+00  8.00000000E+00  6.00000000E+00  1.00000000E+00  1.00000000E+00
  1.00000000E+00  6.00000000E+00  1.00000000E+00  1.00000000E+00  1.00000000E+00
Current cartesian coordinates              R   N=          30
  5.87870922E-32  2.33310803E-32  3.49997837E-01  1.38811055E-31 -1.50907598E-31
  2.64744995E+00 -7.10421161E-31  2.44350938E+00 -1.16164085E+00 -2.74284642E-31
  4.06028346E+00  1.19804710E-01  1.66470496E+00  2.53503137E+00 -2.39487646E+00
 -1.66470496E+00  2.53503137E+00 -2.39487646E+00 -2.99243594E-16 -2.44350938E+00
 -1.16164085E+00 -1.66470496E+00 -2.53503137E+00 -2.39487646E+00  1.66470496E+00
 -2.53503137E+00 -2.39487646E+00 -4.97241314E-16 -4.06028346E+00  1.19804710E-01
Number of symbols in /Mol/                 I                0
Int Atom Types                             I   N=          10
           0           0           0           0           0           0
           0           0           0           0
Force Field                                I                0
Atom Types                                 C   N=          10
                                                            
                                                            
MM charges                                 R   N=          10
  0.00000000E+00  0.00000000E+00  0.00000000E+00  0.00000000E+00  0.00000000E+00
  0.00000000E+00  0.00000000E+00  0.00000000E+00  0.00000000E+00  0.00000000E+00
Integer atomic weights                     I   N=          10
          12          16          12           1           1           1
          12           1           1           1
Real atomic weights                        R   N=          10
  1.20000000E+01  1.59949146E+01  1.20000000E+01  1.00782504E+00  1.00782504E+00
  1.00782504E+00  1.20000000E+01  1.00782504E+00  1.00782504E+00  1.00782504E+00
Atom fragment info                         I   N=          10
           0           0           0           0           0           0
           0           0           0           0
Atom residue num                           I   N=          10
           0           0           0           0           0           0
           0           0           0           0
Nuclear spins                              I   N=          10
           0           0           0           1           1           1
           0           1           1           1
Nuclear ZEff                               R   N=          10
 -3.60000000E+00 -5.60000000E+00 -3.60000000E+00 -1.00000000E+00 -1.00000000E+00
 -1.00000000E+00 -3.60000000E+00 -1.00000000E+00 -1.00000000E+00 -1.00000000E+00
Nuclear ZNuc                               R   N=          10
  6.00000000E+00  8.00000000E+00  6.00000000E+00  1.00000000E+00  1.00000000E+00
  1.00000000E+00  6.00000000E+00  1.00000000E+00  1.00000000E+00  1.00000000E+00
Nuclear QMom                               R   N=          10
  0.00000000E+00  0.00000000E+00  0.00000000E+00  0.00000000E+00  0.00000000E+00
  0.00000000E+00  0.00000000E+00  0.00000000E+00  0.00000000E+00  0.00000000E+00
Nuclear GFac                               R   N=          10
  0.00000000E+00  0.00000000E+00  0.00000000E+00  2.79284600E+00  2.79284600E+00
  2.79284600E+00  0.00000000E+00  2.79284600E+00  2.79284600E+00  2.79284600E+00
MicOpt                                     I   N=          10
          -1          -1          -1          -1          -1          -1
          -1          -1          -1          -1
Number of residues                         I                0
Number of secondary structures             I                0
Redundant internal dimensions              I   N=           4
          36           9          15          12
Redundant internal coordinate indices      I   N=         144
           1           2           0           0           1           3
           0           0           1           7           0           0
           3           4           0           0           3           5
           0           0           3           6           0           0
           7           8           0           0           7           9
           0           0           7          10           0           0
           2           1           3           0           2           1
           7           0           3           1           7           0
           1           3           4           0           1           3
           5           0           1           3           6           0
           4           3           5           0           4           3
           6           0           5           3           6           0
           1           7           8           0           1           7
           9           0           1           7          10           0
           8           7           9           0           8           7
          10           0           9           7          10           0
           2           1           3           4           2           1
           3           5           2           1           3           6
           7           1           3           4           7           1
           3           5           7           1           3           6
           2           1           7           8           2           1
           7           9           2           1           7          10
           3           1           7           8           3           1
           7           9           3           1           7          10
Redundant internal coordinates             R   N=          36
  2.29745211E+00  2.87328899E+00  2.87328899E+00  2.06302233E+00  2.07376202E+00
  2.07376202E+00  2.07376202E+00  2.07376202E+00  2.06302233E+00  2.12480495E+00
  2.12480495E+00  2.03357541E+00  1.91737523E+00  1.92879034E+00  1.92879034E+00
  1.91219097E+00  1.91219097E+00  1.86377318E+00  1.92879034E+00  1.92879034E+00
  1.91737523E+00  1.86377318E+00  1.91219097E+00  1.91219097E+00 -0.00000000E+00
  2.11200983E+00 -2.11200983E+00  3.14159265E+00 -1.02958283E+00  1.02958283E+00
  2.11200983E+00 -2.11200983E+00  0.00000000E+00 -1.02958283E+00  1.02958283E+00
  3.14159265E+00
ZRed-IntVec                                I   N=          36
           0           0           0           0           0           0
           0           0           0           0           0           0
           0           0           0           0           0           0
           0           0           0           0           0           0
           0           0           0           0           0           0
           0           0           0           0           0           0
ZRed-FPVec                                 R   N=          36
  0.00000000E+00  0.00000000E+00  0.00000000E+00  0.00000000E+00  0.00000000E+00
  0.00000000E+00  0.00000000E+00  0.00000000E+00  0.00000000E+00  0.00000000E+00
  0.00000000E+00  0.00000000E+00  0.00000000E+00  0.00000000E+00  0.00000000E+00
  0.00000000E+00  0.00000000E+00  0.00000000E+00  0.00000000E+00  0.00000000E+00
  0.00000000E+00  0.00000000E+00  0.00000000E+00  0.00000000E+00  0.00000000E+00
  0.00000000E+00  0.00000000E+00  0.00000000E+00  0.00000000E+00  0.00000000E+00
  0.00000000E+00  0.00000000E+00  0.00000000E+00  0.00000000E+00  0.00000000E+00
  0.00000000E+00
ZRed-Constraint1                           R   N=          36
  2.29745211E+00  2.87328899E+00  2.87328899E+00  2.06302233E+00  2.07376202E+00
  2.07376202E+00  2.07376202E+00  2.07376202E+00  2.06302233E+00  2.12480495E+00
  2.12480495E+00  2.03357541E+00  1.91737523E+00  1.92879034E+00  1.92879034E+00
  1.91219097E+00  1.91219097E+00  1.86377318E+00  1.92879034E+00  1.92879034E+00
  1.91737523E+00  1.86377318E+00  1.91219097E+00  1.91219097E+00 -0.00000000E+00
  2.11200983E+00 -2.11200983E+00  3.14159265E+00 -1.02958283E+00  1.02958283E+00
  2.11200983E+00 -2.11200983E+00 -0.00000000E+00 -1.02958283E+00  1.02958283E+00
  3.14159265E+00
ZRed-Constraint2                           R   N=          36
  2.29745211E+00  2.87328899E+00  2.87328899E+00  2.06302233E+00  2.07376202E+00
  2.07376202E+00  2.07376202E+00  2.07376202E+00  2.06302233E+00  2.12480495E+00
  2.12480495E+00  2.03357541E+00  1.91737523E+00  1.92879034E+00  1.92879034E+00
  1.91219097E+00  1.91219097E+00  1.86377318E+00  1.92879034E+00  1.92879034E+00
  1.91737523E+00  1.86377318E+00  1.91219097E+00  1.91219097E+00  0.00000000E+00
  2.11200983E+00 -2.11200983E+00  3.14159265E+00 -1.02958283E+00  1.02958283E+00
  2.11200983E+00 -2.11200983E+00  0.00000000E+00 -1.02958283E+00  1.02958283E+00
  3.14159265E+00
SymInf integers                            I   N=          26
           4           4           1           1           1          -1
          -1           1          -1           1           1           1
          -1           1           0           0           0           0
           0           0           0           0           0           0
           0           0
RotTr to input orientation                 R   N=          12
 -1.00000000E+00  1.48236173E-15 -2.88794324E-16 -1.48236173E-15 -1.00000000E+00
  1.11496769E-15 -2.88794324E-16  1.11496769E-15  1.00000000E+00  7.59707456E-16
 -2.45160675E-17  4.44793369E-01
Number of contracted shells                I               28
Number of primitive shells                 I               68
Pure/Cartesian d shells                    I                1
Pure/Cartesian f shells                    I                1
Highest angular momentum                   I                2
Largest degree of contraction              I                6
Shell types                                I   N=          28
           0          -1          -1           2           0          -1
          -1           2           0          -1          -1           2
           0           0           0           0           0           0
           0          -1          -1           2           0           0
           0           0           0           0
Number of primitives per shell             I   N=          28
           6           3           1           1           6           3
           1           1           6           3           1           1
           3           1           3           1           3           1
           6           3           1           1           3           1
           3           1           3           1
Shell to atom map                          I   N=          28
           1           1           1           1           2           2
           2           2           3           3           3           3
           4           4           5           5           6           6
           7           7           7           7           8           8
           9           9          10          10
Primitive exponents                        R   N=          68
  3.04752488E+03  4.57369518E+02  1.03948685E+02  2.92101553E+01  9.28666296E+00
  3.16392696E+00  7.86827235E+00  1.88128854E+00  5.44249258E-01  1.68714478E-01
  8.00000000E-01  5.48467166E+03  8.25234946E+02  1.88046958E+02  5.29645000E+01
  1.68975704E+01  5.79963534E+00  1.55396162E+01  3.59993359E+00  1.01376175E+00
  2.70005823E-01  8.00000000E-01  3.04752488E+03  4.57369518E+02  1.03948685E+02
  2.92101553E+01  9.28666296E+00  3.16392696E+00  7.86827235E+00  1.88128854E+00
  5.44249258E-01  1.68714478E-01  8.00000000E-01  1.87311370E+01  2.82539436E+00
  6.40121692E-01  1.61277759E-01  1.87311370E+01  2.82539436E+00  6.40121692E-01
  1.61277759E-01  1.87311370E+01  2.82539436E+00  6.40121692E-01  1.61277759E-01
  3.04752488E+03  4.57369518E+02  1.03948685E+02  2.92101553E+01  9.28666296E+00
  3.16392696E+00  7.86827235E+00  1.88128854E+00  5.44249258E-01  1.68714478E-01
  8.00000000E-01  1.87311370E+01  2.82539436E+00  6.40121692E-01  1.61277759E-01
  1.87311370E+01  2.82539436E+00  6.40121692E-01  1.61277759E-01  1.87311370E+01
  2.82539436E+00  6.40121692E-01  1.61277759E-01
Contraction coefficients                   R   N=          68
  1.83473713E-03  1.40373228E-02  6.88426223E-02  2.32184443E-01  4.67941348E-01
  3.62311985E-01 -1.19332420E-01 -1.60854152E-01  1.14345644E+00  1.00000000E+00
  1.00000000E+00  1.83107443E-03  1.39501722E-02  6.84450781E-02  2.32714336E-01
  4.70192898E-01  3.58520853E-01 -1.10777550E-01 -1.48026263E-01  1.13076702E+00
  1.00000000E+00  1.00000000E+00  1.83473713E-03  1.40373228E-02  6.88426223E-02
  2.32184443E-01  4.67941348E-01  3.62311985E-01 -1.19332420E-01 -1.60854152E-01
  1.14345644E+00  1.00000000E+00  1.00000000E+00  3.34946043E-02  2.34726953E-01
  8.13757326E-01  1.00000000E+00  3.34946043E-02  2.34726953E-01  8.13757326E-01
  1.00000000E+00  3.34946043E-02  2.34726953E-01  8.13757326E-01  1.00000000E+00
  1.83473713E-03  1.40373228E-02  6.88426223E-02  2.32184443E-01  4.67941348E-01
  3.62311985E-01 -1.19332420E-01 -1.60854152E-01  1.14345644E+00  1.00000000E+00
  1.00000000E+00  3.34946043E-02  2.34726953E-01  8.13757326E-01  1.00000000E+00
  3.34946043E-02  2.34726953E-01  8.13757326E-01  1.00000000E+00  3.34946043E-02
  2.34726953E-01  8.13757326E-01  1.00000000E+00
P(S=P) Contraction coefficients            R   N=          68
  0.00000000E+00  0.00000000E+00  0.00000000E+00  0.00000000E+00  0.00000000E+00
  0.00000000E+00  6.89990666E-02  3.16423961E-01  7.44308291E-01  1.00000000E+00
  0.00000000E+00  0.00000000E+00  0.00000000E+00  0.00000000E+00  0.00000000E+00
  0.00000000E+00  0.00000000E+00  7.08742682E-02  3.39752839E-01  7.27158577E-01
  1.00000000E+00  0.00000000E+00  0.00000000E+00  0.00000000E+00  0.00000000E+00
  0.00000000E+00  0.00000000E+00  0.00000000E+00  6.89990666E-02  3.16423961E-01
  7.44308291E-01  1.00000000E+00  0.00000000E+00  0.00000000E+00  0.00000000E+00
  0.00000000E+00  0.00000000E+00  0.00000000E+00  0.00000000E+00  0.00000000E+00
  0.00000000E+00  0.00000000E+00  0.00000000E+00  0.00000000E+00  0.00000000E+00
  0.00000000E+00  0.00000000E+00  0.00000000E+00  0.00000000E+00  0.00000000E+00
  0.00000000E+00  6.89990666E-02  3.16423961E-01  7.44308291E-01  1.00000000E+00
  0.00000000E+00  0.00000000E+00  0.00000000E+00  0.00000000E+00  0.00000000E+00
  0.00000000E+00  0.00000000E+00  0.00000000E+00  0.00000000E+00  0.00000000E+00
  0.00000000E+00  0.00000000E+00  0.00000000E+00
Coordinates of each shell                  R   N=          84
  5.87870922E-32  2.33310803E-32  3.49997837E-01  5.87870922E-32  2.33310803E-32
  3.49997837E-01  5.87870922E-32  2.33310803E-32  3.49997837E-01  5.87870922E-32
  2.33310803E-32  3.49997837E-01  1.38811055E-31 -1.50907598E-31  2.64744995E+00
  1.38811055E-31 -1.50907598E-31  2.64744995E+00  1.38811055E-31 -1.50907598E-31
  2.64744995E+00  1.38811055E-31 -1.50907598E-31  2.64744995E+00 -7.10421161E-31
  2.44350938E+00 -1.16164085E+00 -7.10421161E-31  2.44350938E+00 -1.16164085E+00
 -7.10421161E-31  2.44350938E+00 -1.16164085E+00 -7.10421161E-31  2.44350938E+00
 -1.16164085E+00 -2.74284642E-31  4.06028346E+00  1.19804710E-01 -2.74284642E-31
  4.06028346E+00  1.19804710E-01  1.66470496E+00  2.53503137E+00 -2.39487646E+00
  1.66470496E+00  2.53503137E+00 -2.39487646E+00 -1.66470496E+00  2.53503137E+00
 -2.39487646E+00 -1.66470496E+00  2.53503137E+00 -2.39487646E+00 -2.99243594E-16
 -2.44350938E+00 -1.16164085E+00 -2.99243594E-16 -2.44350938E+00 -1.16164085E+00
 -2.99243594E-16 -2.44350938E+00 -1.16164085E+00 -2.99243594E-16 -2.44350938E+00
 -1.16164085E+00 -1.66470496E+00 -2.53503137E+00 -2.39487646E+00 -1.66470496E+00
 -2.53503137E+00 -2.39487646E+00  1.66470496E+00 -2.53503137E+00 -2.39487646E+00
  1.66470496E+00 -2.53503137E+00 -2.39487646E+00 -4.97241314E-16 -4.06028346E+00
  1.19804710E-01 -4.97241314E-16 -4.06028346E+00  1.19804710E-01
Num ILSW                                   I              100
ILSW                                       I   N=         100
           0           1           0           0           2           0
           0           0           0           0         402          -1
           5           0           0           1           0           0
           0           0           0           0           0           0
           1           0           0           0           0           0
           0           0      100000           0          -1           0
           0           0           0           0           0           0
           0           0           0           1           0           0
           0 -2000000000           1           0           0           0
           0           0           4          52           0           0
           0           0           5           0           0           0
           0           0           0          10           0           1
           0           0           0           0           0           0
           0           0           0           0           0           0
           0           0           0           0           0           0
           0           0           0           0           0           0
           0           0           0           0
Num RLSW                                   I               52
RLSW                                       R   N=          52
  8.00000000E-01  7.20000000E-01  1.00000000E+00  8.10000000E-01  2.00000000E-01
  0.00000000E+00  0.00000000E+00  1.00000000E+00  0.00000000E+00  0.00000000E+00
  0.00000000E+00  0.00000000E+00  1.00000000E+00  0.00000000E+00  0.00000000E+00
  0.00000000E+00  0.00000000E+00  1.00000000E+00  0.00000000E+00  0.00000000E+00
  0.00000000E+00  0.00000000E+00  1.00000000E+00  0.00000000E+00  0.00000000E+00
  0.00000000E+00  0.00000000E+00  1.00000000E+00  0.00000000E+00  0.00000000E+00
  0.00000000E+00  0.00000000E+00  1.00000000E+00  0.00000000E+00  0.00000000E+00
  0.00000000E+00  0.00000000E+00  0.00000000E+00  1.00000000E+00  1.00000000E+00
  0.00000000E+00  1.00000000E+00  0.00000000E+00  0.00000000E+00  0.00000000E+00
  0.00000000E+00  0.00000000E+00  0.00000000E+00  0.00000000E+00  0.00000000E+00
  0.00000000E+00  0.00000000E+00
MxBond                                     I                4
NBond                                      I   N=          10
           3           1           4           1           1           1
           4           1           1           1
IBond                                      I   N=          40
           2           3           7           0           1           0
           0           0           1           4           5           6
           3           0           0           0           3           0
           0           0           3           0           0           0
           1           8           9          10           7           0
           0           0           7           0           0           0
           7           0           0           0
RBond                                      R   N=          40
  2.00000000E+00  1.00000000E+00  1.00000000E+00  0.00000000E+00  2.00000000E+00
  0.00000000E+00  0.00000000E+00  0.00000000E+00  1.00000000E+00  1.00000000E+00
  1.00000000E+00  1.00000000E+00  1.00000000E+00  0.00000000E+00  0.00000000E+00
  0.00000000E+00  1.00000000E+00  0.00000000E+00  0.00000000E+00  0.00000000E+00
  1.00000000E+00  0.00000000E+00  0.00000000E+00  0.00000000E+00  1.00000000E+00
  1.00000000E+00  1.00000000E+00  1.00000000E+00  1.00000000E+00  0.00000000E+00
  0.00000000E+00  0.00000000E+00  1.00000000E+00  0.00000000E+00  0.00000000E+00
  0.00000000E+00  1.00000000E+00  0.00000000E+00  0.00000000E+00  0.00000000E+00
Virial Ratio                               R      2.009460652738618E+00
SCF Energy                                 R     -1.931556928502416E+02
CIS Energy                                 R     -1.930184236624075E+02
Total Energy                               R     -1.930184236624075E+02
Post-SCF wavefunction norm                 R      1.000000000000000E+00
RMS Density                                R      5.424712535309392E-09
Job Status                                 I                1
Nuclear derivative order                   I                0
External E-field                           R   N=          35
  0.00000000E+00  0.00000000E+00  0.00000000E+00  0.00000000E+00  0.00000000E+00
  0.00000000E+00  0.00000000E+00  0.00000000E+00  0.00000000E+00  0.00000000E+00
  0.00000000E+00  0.00000000E+00  0.00000000E+00  0.00000000E+00  0.00000000E+00
  0.00000000E+00  0.00000000E+00  0.00000000E+00  0.00000000E+00  0.00000000E+00
  0.00000000E+00  0.00000000E+00  0.00000000E+00  0.00000000E+00  0.00000000E+00
  0.00000000E+00  0.00000000E+00  0.00000000E+00  0.00000000E+00  0.00000000E+00
  0.00000000E+00  0.00000000E+00  0.00000000E+00  0.00000000E+00  0.00000000E+00
IOpCl                                      I                0
IROHF                                      I                0
Alpha Orbital Energies                     R   N=          72
 -1.91357850E+01 -1.02776461E+01 -1.01907728E+01 -1.01907617E+01 -1.03554652E+00
 -7.66946585E-01 -7.09737833E-01 -5.30821189E-01 -4.57857576E-01 -4.57558951E-01
 -4.47715003E-01 -4.03990438E-01 -3.92954847E-01 -3.78530718E-01 -3.46938550E-01
 -2.44180256E-01 -1.11735142E-02  8.79273948E-02  1.37449787E-01  1.48158477E-01
  1.61061357E-01  1.70775493E-01  1.80383520E-01  1.98198581E-01  2.90243432E-01
  3.23490730E-01  4.92114106E-01  5.36682727E-01  5.64760294E-01  5.73749834E-01
  5.76141518E-01  6.91971169E-01  7.01457504E-01  7.07204008E-01  7.70994943E-01
  7.84572979E-01  8.33093768E-01  8.74717508E-01  8.85320848E-01  8.98251665E-01
  9.20288359E-01  9.37979929E-01  9.60304904E-01  1.01831015E+00  1.10020388E+00
  1.17890062E+00  1.40539734E+00  1.42000717E+00  1.42767608E+00  1.56255251E+00
  1.76502082E+00  1.77734635E+00  1.79039122E+00  1.80503149E+00  1.90981313E+00
  1.93372452E+00  2.02740956E+00  2.07303948E+00  2.11781099E+00  2.19827237E+00
  2.20715910E+00  2.36088034E+00  2.40895878E+00  2.48341502E+00  2.59688640E+00
  2.69179808E+00  2.95610629E+00  2.97622839E+00  3.94544198E+00  4.08806984E+00
  4.27030620E+00  4.44325836E+00
Alpha MO coefficients                      R   N=        5184
 -1.14380699E-05  4.02502955E-04  0.00000000E+00  0.00000000E+00 -3.42694883E-05
 -2.72874516E-03  0.00000000E+00  0.00000000E+00 -4.02966202E-03 -5.23610474E-05
 -3.23049568E-05 -9.18552990E-04  0.00000000E+00  0.00000000E+00  0.00000000E+00
  9.92720350E-01  2.55495401E-02  0.00000000E+00  0.00000000E+00 -1.14008295E-03
  1.47521583E-02  0.00000000E+00  0.00000000E+00 -1.86927628E-03 -8.24705513E-03
 -8.22033021E-03 -7.64023165E-03  0.00000000E+00  0.00000000E+00  0.00000000E+00
  8.12132550E-06  8.67676597E-05  0.00000000E+00 -1.19017792E-05 -9.99926780E-06
 -7.03578833E-04  0.00000000E+00  7.45990485E-04  4.38492678E-04 -4.64474581E-06
 -4.13982879E-05  1.45715503E-05  0.00000000E+00  0.00000000E+00  5.48458976E-06
  1.44960732E-05 -3.61690716E-04  2.82626450E-05  1.12077346E-04  2.82626450E-05
  1.12077346E-04  8.12132550E-06  8.67676597E-05  0.00000000E+00  1.19017792E-05
 -9.99926780E-06 -7.03578833E-04  0.00000000E+00 -7.45990485E-04  4.38492678E-04
 -4.64474581E-06 -4.13982879E-05  1.45715503E-05  0.00000000E+00  0.00000000E+00
 -5.48458976E-06  2.82626450E-05  1.12077346E-04  2.82626450E-05  1.12077346E-04
  1.44960732E-05 -3.61690716E-04  9.92929338E-01  4.87139378E-02  0.00000000E+00
  0.00000000E+00  7.72765924E-04 -1.02633217E-02  0.00000000E+00  0.00000000E+00
  4.74581006E-03 -9.45340270E-03 -9.30346174E-03 -8.19159387E-03  0.00000000E+00
  0.00000000E+00  0.00000000E+00 -9.96021459E-05  5.72990944E-04  0.00000000E+00
  0.00000000E+00  3.92514895E-05 -3.95153202E-03  0.00000000E+00  0.00000000E+00
  2.23275761E-03  5.54585869E-04  3.73089234E-04 -2.58149874E-04  0.00000000E+00
  0.00000000E+00  0.00000000E+00  1.20774618E-03 -1.00195652E-04  0.00000000E+00
  1.83304011E-04 -1.98439531E-04  3.72178507E-03  0.00000000E+00 -2.00026079E-03
  5.00125400E-04 -5.58530449E-05 -3.01305553E-04 -3.44269476E-04  0.00000000E+00
  0.00000000E+00  2.23105594E-04 -7.30084283E-05  1.83132335E-04 -1.69228911E-04
  1.53948321E-04 -1.69228911E-04  1.53948321E-04  1.20774618E-03 -1.00195652E-04
  0.00000000E+00 -1.83304011E-04 -1.98439531E-04  3.72178507E-03  0.00000000E+00
  2.00026079E-03  5.00125400E-04 -5.58530449E-05 -3.01305553E-04 -3.44269476E-04
  0.00000000E+00  0.00000000E+00 -2.23105594E-04 -1.69228911E-04  1.53948321E-04
 -1.69228911E-04  1.53948321E-04 -7.30084283E-05  1.83132335E-04  0.00000000E+00
  0.00000000E+00  0.00000000E+00 -2.67986801E-04  0.00000000E+00  0.00000000E+00
  0.00000000E+00  4.70938210E-03  0.00000000E+00  0.00000000E+00  0.00000000E+00
  0.00000000E+00  0.00000000E+00  0.00000000E+00  2.24172471E-04  0.00000000E+00
  0.00000000E+00  0.00000000E+00  2.89292351E-05  0.00000000E+00  0.00000000E+00
  0.00000000E+00 -7.18637738E-04  0.00000000E+00  0.00000000E+00  0.00000000E+00
  0.00000000E+00  0.00000000E+00  0.00000000E+00  9.93675926E-05  7.02130453E-01
  3.58392046E-02  0.00000000E+00 -1.63488508E-04 -1.64828775E-04 -1.40055275E-02
  0.00000000E+00  1.45824649E-03 -4.99175903E-04 -6.38117495E-03 -6.47798532E-03
 -6.50870906E-03  0.00000000E+00  0.00000000E+00  9.24065710E-05  1.40183317E-05
  1.64381125E-03  5.41752478E-05  2.16852540E-03  5.41752478E-05  2.16852540E-03
 -7.02130453E-01 -3.58392046E-02  0.00000000E+00 -1.63488508E-04  1.64828775E-04
  1.40055275E-02  0.00000000E+00  1.45824649E-03  4.99175903E-04  6.38117495E-03
  6.47798532E-03  6.50870906E-03  0.00000000E+00  0.00000000E+00  9.24065710E-05
 -5.41752478E-05 -2.16852540E-03 -5.41752478E-05 -2.16852540E-03 -1.40183317E-05
 -1.64381125E-03 -2.02149284E-03 -3.67135481E-04  0.00000000E+00  0.00000000E+00
  3.43274337E-05  5.40658167E-03  0.00000000E+00  0.00000000E+00 -1.26396614E-03
 -1.89003432E-04 -4.92015106E-04 -3.13071323E-04  0.00000000E+00  0.00000000E+00
  0.00000000E+00 -2.71292458E-05 -1.56872660E-04  0.00000000E+00  0.00000000E+00
  2.93369513E-05  1.92439155E-04  0.00000000E+00  0.00000000E+00 -1.61001570E-04
 -2.14562213E-04 -2.72581888E-05  4.67891167E-05  0.00000000E+00  0.00000000E+00
  0.00000000E+00  7.02027445E-01  3.53366063E-02  0.00000000E+00  6.33724464E-06
 -3.64244898E-05 -1.13126171E-02  0.00000000E+00  2.88719531E-04 -4.00071580E-04
 -6.58309772E-03 -6.58350605E-03 -6.56617641E-03  0.00000000E+00  0.00000000E+00
  2.98866327E-05 -4.38591546E-05  2.08976487E-03 -8.73967333E-05  1.76621878E-03
 -8.73967333E-05  1.76621878E-03  7.02027445E-01  3.53366063E-02  0.00000000E+00
 -6.33724464E-06 -3.64244898E-05 -1.13126171E-02  0.00000000E+00 -2.88719531E-04
 -4.00071580E-04 -6.58309772E-03 -6.58350605E-03 -6.56617641E-03  0.00000000E+00
  0.00000000E+00 -2.98866327E-05 -8.73967333E-05  1.76621878E-03 -8.73967333E-05
  1.76621878E-03 -4.38591546E-05  2.08976487E-03 -1.20418807E-01  2.32821381E-01
  0.00000000E+00  0.00000000E+00  1.79991391E-01  8.43605811E-02  0.00000000E+00
  0.00000000E+00 -4.35915197E-02 -1.98898077E-02 -1.90905904E-02  2.21794392E-02
  0.00000000E+00  0.00000000E+00  0.00000000E+00 -1.93430851E-01  4.18885412E-01
  0.00000000E+00  0.00000000E+00 -1.61728462E-01  4.03122565E-01  0.00000000E+00
  0.00000000E+00 -5.76913487E-02 -6.92701639E-03 -1.16234069E-02  9.88027917E-03
  0.00000000E+00  0.00000000E+00  0.00000000E+00 -1.84142109E-02  3.38514418E-02
  0.00000000E+00 -1.87741904E-02  1.91593123E-02  5.75604456E-03  0.00000000E+00
  9.22738149E-03  9.60817227E-03 -1.19710647E-03  3.15296017E-03  3.34162029E-03
  0.00000000E+00  0.00000000E+00 -4.79730915E-03  8.15557998E-03 -2.60239192E-03
  6.14952111E-03  1.23325303E-03  6.14952111E-03  1.23325303E-03 -1.84142109E-02
  3.38514418E-02  0.00000000E+00  1.87741904E-02  1.91593123E-02  5.75604456E-03
  0.00000000E+00 -9.22738149E-03  9.60817227E-03 -1.19710647E-03  3.15296017E-03
  3.34162029E-03  0.00000000E+00  0.00000000E+00  4.79730915E-03  6.14952111E-03
  1.23325303E-03  6.14952111E-03  1.23325303E-03  8.15557998E-03 -2.60239192E-03
 -8.58024297E-02  1.72987516E-01  0.00000000E+00  0.00000000E+00 -1.82096533E-01
  1.23919441E-01  0.00000000E+00  0.00000000E+00 -4.33706631E-02 -6.13542004E-03
  1.35802595E-02 -1.21459939E-02  0.00000000E+00  0.00000000E+00  0.00000000E+00
  6.48738528E-02 -1.48080111E-01  0.00000000E+00  0.00000000E+00  8.22673922E-04
 -1.48514122E-01  0.00000000E+00  0.00000000E+00 -9.54893995E-03 -4.54389416E-04
  1.25036713E-03  3.69049842E-03  0.00000000E+00  0.00000000E+00  0.00000000E+00
 -1.24888206E-01  2.38602621E-01  0.00000000E+00 -4.75537795E-02  1.74889208E-03