 Entering Gaussian System, Link 0=/usr/appli/g16/c01/g16/.g16
 Input=TD.com
 Output=TD.log
 Initial command:
 /usr/appli/g16/c01/g16/l1.exe "/scratch/gaussian/Gau-616763.inp" -scrdir="/scratch/gaussian/"
 Entering Link 1 = /usr/appli/g16/c01/g16/l1.exe PID=    616764.
  
 Copyright (c) 1988-2019, Gaussian, Inc.  All Rights Reserved.
  
 This is part of the Gaussian(R) 16 program.  It is based on
 the Gaussian(R) 09 system (copyright 2009, Gaussian, Inc.),
 the Gaussian(R) 03 system (copyright 2003, Gaussian, Inc.),
 the Gaussian(R) 98 system (copyright 1998, Gaussian, Inc.),
 the Gaussian(R) 94 system (copyright 1995, Gaussian, Inc.),
 the Gaussian 92(TM) system (copyright 1992, Gaussian, Inc.),
 the Gaussian 90(TM) system (copyright 1990, Gaussian, Inc.),
 the Gaussian 88(TM) system (copyright 1988, Gaussian, Inc.),
 the Gaussian 86(TM) system (copyright 1986, Carnegie Mellon
 University), and the Gaussian 82(TM) system (copyright 1983,
 Carnegie Mellon University). Gaussian is a federally registered
 trademark of Gaussian, Inc.
  
 This software contains proprietary and confidential information,
 including trade secrets, belonging to Gaussian, Inc.
  
 This software is provided under written license and may be
 used, copied, transmitted, or stored only in accord with that
 written license.
  
 The following legend is applicable only to US Government
 contracts under FAR:
  
                    RESTRICTED RIGHTS LEGEND
  
 Use, reproduction and disclosure by the US Government is
 subject to restrictions as set forth in subparagraphs (a)
 and (c) of the Commercial Computer Software - Restricted
 Rights clause in FAR 52.227-19.
  
 Gaussian, Inc.
 340 Quinnipiac St., Bldg. 40, Wallingford CT 06492
  
  
 ---------------------------------------------------------------
 Warning -- This program may not be used in any manner that
 competes with the business of Gaussian, Inc. or will provide
 assistance to any competitor of Gaussian, Inc.  The licensee
 of this program is prohibited from giving any competitor of
 Gaussian, Inc. access to this program.  By using this program,
 the user acknowledges that Gaussian, Inc. is engaged in the
 business of creating and licensing software in the field of
 computational chemistry and represents and warrants to the
 licensee that it is not a competitor of Gaussian, Inc. and that
 it will not use this program in any manner prohibited above.
 ---------------------------------------------------------------
  

 Cite this work as:
 Gaussian 16, Revision C.01,
 M. J. Frisch, G. W. Trucks, H. B. Schlegel, G. E. Scuseria, 
 M. A. Robb, J. R. Cheeseman, G. Scalmani, V. Barone, 
 G. A. Petersson, H. Nakatsuji, X. Li, M. Caricato, A. V. Marenich, 
 J. Bloino, B. G. Janesko, R. Gomperts, B. Mennucci, H. P. Hratchian, 
 J. V. Ortiz, A. F. Izmaylov, J. L. Sonnenberg, D. Williams-Young, 
 F. Ding, F. Lipparini, F. Egidi, J. Goings, B. Peng, A. Petrone, 
 T. Henderson, D. Ranasinghe, V. G. Zakrzewski, J. Gao, N. Rega, 
 G. Zheng, W. Liang, M. Hada, M. Ehara, K. Toyota, R. Fukuda, 
 J. Hasegawa, M. Ishida, T. Nakajima, Y. Honda, O. Kitao, H. Nakai, 
 T. Vreven, K. Throssell, J. A. Montgomery, Jr., J. E. Peralta, 
 F. Ogliaro, M. J. Bearpark, J. J. Heyd, E. N. Brothers, K. N. Kudin, 
 V. N. Staroverov, T. A. Keith, R. Kobayashi, J. Normand, 
 K. Raghavachari, A. P. Rendell, J. C. Burant, S. S. Iyengar, 
 J. Tomasi, M. Cossi, J. M. Millam, M. Klene, C. Adamo, R. Cammi, 
 J. W. Ochterski, R. L. Martin, K. Morokuma, O. Farkas, 
 J. B. Foresman, and D. J. Fox, Gaussian, Inc., Wallingford CT, 2019.
 
 ******************************************
 Gaussian 16:  ES64L-G16RevC.01  3-Jul-2019
                14-Apr-2024 
 ******************************************
 %mem=4GB
 %nprocshared=4
 Will use up to    4 processors via shared memory.
 %chk=TD.chk
 ----------------------------------------------------------------------
 #P B3LYP/ChkBasis TD(50-50, Nstates=5) 6D 10F Geom=Check Guess=Read IO
 P(9/40=4)
 ----------------------------------------------------------------------
 1/29=2,38=1,172=1/1;
 2/12=2,40=1/2;
 3/5=7,6=2,8=22,11=9,14=-4,25=1,30=1,67=1,74=-5,116=-2/1,2,3,8;
 4/5=1/1;
 5/5=2,38=6/2;
 8/6=1,10=1,108=5/1;
 9/40=4,41=5,42=1,48=2,70=2/14;
 6/7=2,8=2,9=2,10=2/1;
 99/5=1,9=1/99;
 Leave Link    1 at Sun Apr 14 22:50:20 2024, MaxMem=   536870912 cpu:               0.1 elap:               0.0
 (Enter /usr/appli/g16/c01/g16/l101.exe)
 --
 S0
 --
 Structure from the checkpoint file:  "TD.chk"
 Charge =  0 Multiplicity = 1
 Redundant internal coordinates found in file.  (old form).
 H,0,-0.3713940643,0.,0.
 H,0,0.3713940643,0.,0.
 Recover connectivity data from disk.
 ITRead=  0  0
 MicOpt= -1 -1
                           ----------------------------
                           !    Current Parameters    !
                           ! (Angstroms and Degrees)  !
 --------------------------                            --------------------------
 ! Name  Definition              Value                                          !
 --------------------------------------------------------------------------------
 ! R1    R(1,2)                  0.7428                                         !
 --------------------------------------------------------------------------------
 NAtoms=      2 NQM=        2 NQMF=       0 NMMI=      0 NMMIF=      0
                NMic=       0 NMicF=      0.
                    Isotopes and Nuclear Properties:
 (Nuclear quadrupole moments (NQMom) in fm**2, nuclear magnetic moments (NMagM)
  in nuclear magnetons)

  Atom         1           2
 IAtWgt=           1           1
 AtmWgt=   1.0078250   1.0078250
 NucSpn=           1           1
 AtZEff=   1.0000000   1.0000000
 NQMom=    0.0000000   0.0000000
 NMagM=    2.7928460   2.7928460
 AtZNuc=   1.0000000   1.0000000
 Leave Link  101 at Sun Apr 14 22:50:20 2024, MaxMem=   536870912 cpu:               0.4 elap:               0.1
 (Enter /usr/appli/g16/c01/g16/l202.exe)
                          Input orientation:                          
 ---------------------------------------------------------------------
 Center     Atomic      Atomic             Coordinates (Angstroms)
 Number     Number       Type             X           Y           Z
 ---------------------------------------------------------------------
      1          1           0       -0.371394    0.000000    0.000000
      2          1           0        0.371394   -0.000000    0.000000
 ---------------------------------------------------------------------
 Stoichiometry    H2
 Framework group  D*H[C*(H.H)]
 Deg. of freedom     1
 Full point group                 D*H     NOp   8
 RotChk:  IX=0 Diff= 8.66D-17
 Largest Abelian subgroup         D2H     NOp   8
 Largest concise Abelian subgroup C2      NOp   2
                         Standard orientation:                         
 ---------------------------------------------------------------------
 Center     Atomic      Atomic             Coordinates (Angstroms)
 Number     Number       Type             X           Y           Z
 ---------------------------------------------------------------------
      1          1           0        0.000000    0.000000    0.371394
      2          1           0        0.000000    0.000000   -0.371394
 ---------------------------------------------------------------------
 Rotational constants (GHZ):           0.0000000        1817.7415898        1817.7415898
 Leave Link  202 at Sun Apr 14 22:50:20 2024, MaxMem=   536870912 cpu:               0.0 elap:               0.0
 (Enter /usr/appli/g16/c01/g16/l301.exe)
 Basis read from chk: "TD.chk" (6D, 10F)
 No pseudopotential information found on chk file.
 There are     2 symmetry adapted cartesian basis functions of AG  symmetry.
 There are     0 symmetry adapted cartesian basis functions of B1G symmetry.
 There are     0 symmetry adapted cartesian basis functions of B2G symmetry.
 There are     0 symmetry adapted cartesian basis functions of B3G symmetry.
 There are     0 symmetry adapted cartesian basis functions of AU  symmetry.
 There are     2 symmetry adapted cartesian basis functions of B1U symmetry.
 There are     0 symmetry adapted cartesian basis functions of B2U symmetry.
 There are     0 symmetry adapted cartesian basis functions of B3U symmetry.
 There are     2 symmetry adapted basis functions of AG  symmetry.
 There are     0 symmetry adapted basis functions of B1G symmetry.
 There are     0 symmetry adapted basis functions of B2G symmetry.
 There are     0 symmetry adapted basis functions of B3G symmetry.
 There are     0 symmetry adapted basis functions of AU  symmetry.
 There are     2 symmetry adapted basis functions of B1U symmetry.
 There are     0 symmetry adapted basis functions of B2U symmetry.
 There are     0 symmetry adapted basis functions of B3U symmetry.
     4 basis functions,     8 primitive gaussians,     4 cartesian basis functions
     1 alpha electrons        1 beta electrons
       nuclear repulsion energy         0.7124201244 Hartrees.
 IExCor=  402 DFT=T Ex+Corr=B3LYP ExCW=0 ScaHFX=  0.200000
 ScaDFX=  0.800000  0.720000  1.000000  0.810000 ScalE2=  1.000000  1.000000
 IRadAn=      5 IRanWt=     -1 IRanGd=            0 ICorTp=0 IEmpDi=  4
 NAtoms=    2 NActive=    2 NUniq=    1 SFac= 4.00D+00 NAtFMM=   60 NAOKFM=F Big=F
 Integral buffers will be    131072 words long.
 Regular integral format.
 Two-electron integral symmetry is turned on.
 No density basis found on file  20724.
 Leave Link  301 at Sun Apr 14 22:50:20 2024, MaxMem=   536870912 cpu:               0.1 elap:               0.0
 (Enter /usr/appli/g16/c01/g16/l302.exe)
 NPDir=0 NMtPBC=     1 NCelOv=     1 NCel=       1 NClECP=     1 NCelD=      1
         NCelK=      1 NCelE2=     1 NClLst=     1 CellRange=     0.0.
 One-electron integrals computed using PRISM.
 One-electron integral symmetry used in STVInt
 NBasis=     4 RedAO= T EigKep=  9.68D-02  NBF=     2     0     0     0     0     2     0     0
 NBsUse=     4 1.00D-06 EigRej= -1.00D+00 NBFU=     2     0     0     0     0     2     0     0
 Precomputing XC quadrature grid using
 IXCGrd= 4 IRadAn=           5 IRanWt=          -1 IRanGd=           0 AccXCQ= 0.00D+00.
 Generated NRdTot=       0 NPtTot=           0 NUsed=           0 NTot=          32
 NSgBfM=     4     4     4     4     4 MxSgAt=     2 MxSgA2=     2.
 Leave Link  302 at Sun Apr 14 22:50:20 2024, MaxMem=   536870912 cpu:               0.1 elap:               0.0
 (Enter /usr/appli/g16/c01/g16/l303.exe)
 DipDrv:  MaxL=1.
 Leave Link  303 at Sun Apr 14 22:50:20 2024, MaxMem=   536870912 cpu:               0.1 elap:               0.0
 (Enter /usr/appli/g16/c01/g16/l308.exe)
 Leave Link  308 at Sun Apr 14 22:50:21 2024, MaxMem=   536870912 cpu:               0.0 elap:               0.0
 (Enter /usr/appli/g16/c01/g16/l401.exe)
 Initial guess from the checkpoint file:  "TD.chk"
 B after Tr=     0.000000   -0.000000   -0.000000
         Rot=    1.000000   -0.000000    0.000000    0.000000 Ang=   0.00 deg.
 Guess basis will be translated and rotated to current coordinates.
 JPrj=2 DoOrth=T DoCkMO=T.
 Initial guess orbital symmetries:
       Occupied  (SGG)
       Virtual   (SGU) (SGG) (SGU)
 The electronic state of the initial guess is 1-SGG.
 Leave Link  401 at Sun Apr 14 22:50:21 2024, MaxMem=   536870912 cpu:               0.2 elap:               0.1
 (Enter /usr/appli/g16/c01/g16/l502.exe)
 Keep R1 ints in memory in symmetry-blocked form, NReq=3355107.
 FoFCou: FMM=F IPFlag=           0 FMFlag=           0 FMFlg1=           0
         NFxFlg=           0 DoJE=F BraDBF=F KetDBF=F FulRan=T
         wScrn=  0.000000 ICntrl=       600 IOpCl=  0 I1Cent=           0 NGrid=           0
         NMat0=    1 NMatS0=     10 NMatT0=    0 NMatD0=    1 NMtDS0=    0 NMtDT0=    0
 Petite list used in FoFCou.
 Closed shell SCF:
 Using DIIS extrapolation, IDIIS=  1040.
 NGot=   536870912 LenX=   536869159 LenY=   536868277
 Requested convergence on RMS density matrix=1.00D-08 within 128 cycles.
 Requested convergence on MAX density matrix=1.00D-06.
 Requested convergence on             energy=1.00D-06.
 No special actions if energy rises.

 Cycle   1  Pass 1  IDiag  1:
 E= -1.17548240891752    
 DIIS: error= 4.03D-15 at cycle   1 NSaved=   1.
 NSaved= 1 IEnMin= 1 EnMin= -1.17548240891752     IErMin= 1 ErrMin= 4.03D-15
 ErrMax= 4.03D-15  0.00D+00 EMaxC= 1.00D-01 BMatC= 6.50D-29 BMatP= 6.50D-29
 IDIUse=1 WtCom= 1.00D+00 WtEn= 0.00D+00
 Coeff-Com:  0.100D+01
 Coeff:      0.100D+01
 Gap=     0.534 Goal=   None    Shift=    0.000
 Skip diagonalization as Alpha Fock matrix is already diagonal.
 RMSDP=0.00D+00 MaxDP=0.00D+00              OVMax= 0.00D+00

 SCF Done:  E(RB3LYP) =  -1.17548240892     A.U. after    1 cycles
            NFock=  1  Conv=0.00D+00     -V/T= 2.0282
 KE= 1.143207818353D+00 PE=-3.636744655577D+00 EE= 6.056343039258D-01
 Leave Link  502 at Sun Apr 14 22:50:21 2024, MaxMem=   536870912 cpu:               0.1 elap:               0.0
 (Enter /usr/appli/g16/c01/g16/l801.exe)
 DoSCS=F DFT=T ScalE2(SS,OS)=  1.000000  1.000000
 Range of M.O.s used for correlation:     1     4
 NBasis=     4 NAE=     1 NBE=     1 NFC=     0 NFV=     0
 NROrb=      4 NOA=     1 NOB=     1 NVA=     3 NVB=     3
 Leave Link  801 at Sun Apr 14 22:50:21 2024, MaxMem=   536870912 cpu:               0.1 elap:               0.0
 (Enter /usr/appli/g16/c01/g16/l914.exe)
 RHF ground state
 Keep R1, R2, and R3 ints in memory in symmetry-blocked form, NReq=3505801.
 FoFCou: FMM=F IPFlag=           0 FMFlag=           0 FMFlg1=           0
         NFxFlg=           0 DoJE=F BraDBF=F KetDBF=F FulRan=T
         wScrn=  0.000000 ICntrl=       600 IOpCl=  0 I1Cent=           0 NGrid=           0
         NMat0=    1 NMatS0=     10 NMatT0=    0 NMatD0=    1 NMtDS0=    0 NMtDT0=    0
 Petite list used in FoFCou.
 MDV=   536870912 DFT=T DoStab=F Mixed=T DoRPA=T DoScal=F NonHer=T
 Making orbital integer symmetry assigments:
 Orbital symmetries:
       Occupied  (SGG)
       Virtual   (SGU) (SGG) (SGU)
     6 initial guesses have been made.
 Convergence on wavefunction:    0.001000000000000
 Davidson Disk Diagonalization:  ConvIn= 1.00D-03 SkipCon=T Conv= 1.00D-03.
 Max sub-space:    20 roots to seek:    10 dimension of matrix:            6
 *** WARNING: Number of orthogonal guesses is            6
 Iteration     1 Dimension     6 NMult     0 NNew      6
 CISAX will form     6 AO SS matrices at one time.
 NMat=     6 NSing=     3 JSym2X=-1.
 New state      1 was old state      2
 New state      2 was old state      1
 New state      3 was old state      4
 New state      4 was old state      3
 New state      5 was old state      6
 New state      6 was old state      5
 Excitation Energies [eV] at current iteration:
 Root      1 :    10.581934849618516
 Root      2 :    14.748728215703235
 Root      3 :    23.138839962245953
 Root      4 :    28.493168527942117
 Root      5 :    35.584916365610418
 Root      6 :    42.289862665668522
 Convergence achieved for final wavefunctions.
 ***********************************************************************
 Excited states from <AA,BB:AA,BB> singles matrix:
 ***********************************************************************
 
 1PDM for each excited state written to RWF  633
 Ground to excited state transition densities written to RWF  633
 Ground to excited state transition electric dipole moments (Au):
       state          X           Y           Z        Dip. S.      Osc.
         1        -0.0000     -0.0000     -0.0000      0.0000      0.0000
         2         0.0000      0.0000     -1.3052      1.7037      0.6156
         3        -0.0000     -0.0000     -0.0000      0.0000      0.0000
         4         0.0000      0.0000     -0.0000      0.0000      0.0000
         5        -0.0000     -0.0000     -0.0000      0.0000      0.0000
         6        -0.0000     -0.0000      0.2651      0.0703      0.0728
 Ground to excited state transition velocity dipole moments (Au):
       state          X           Y           Z        Dip. S.      Osc.
         1         0.0000      0.0000      0.0000      0.0000      0.0000
         2        -0.0000     -0.0000      0.6780      0.4596      0.5654
         3         0.0000      0.0000      0.0000      0.0000      0.0000
         4        -0.0000     -0.0000      0.0000      0.0000      0.0000
         5         0.0000      0.0000      0.0000      0.0000      0.0000
         6         0.0000      0.0000     -0.2824      0.0798      0.0342
 Ground to excited state transition magnetic dipole moments (Au):
       state          X           Y           Z
         1         0.0000      0.0000      0.0000
         2         0.0000     -0.0000      0.0000
         3         0.0000      0.0000      0.0000
         4         0.0000     -0.0000      0.0000
         5         0.0000      0.0000      0.0000
         6        -0.0000      0.0000     -0.0000
 Ground to excited state transition velocity quadrupole moments (Au):
       state          XX          YY          ZZ          XY          XZ          YZ
         1         0.0000      0.0000      0.0000      0.0000      0.0000      0.0000
         2         0.0000      0.0000      0.0000     -0.0000      0.0000      0.0000
         3         0.0000      0.0000      0.0000      0.0000      0.0000      0.0000
         4        -0.9556     -0.9556     -0.7385      0.0000     -0.0000     -0.0000
         5         0.0000      0.0000      0.0000      0.0000      0.0000      0.0000
         6        -0.0000     -0.0000     -0.0000      0.0000     -0.0000     -0.0000
 <0|del|b> * <b|rxdel|0> + <0|del|b> * <b|delr+rdel|0>
 Rotatory Strengths (R) in cgs (10**-40 erg-esu-cm/Gauss)
       state          XX          YY          ZZ    R(velocity)    E-M Angle
         1         0.0000      0.0000      0.0000      0.0000       90.00
         2         0.0000     -0.0000      0.0000     -0.0000       90.00
         3         0.0000      0.0000      0.0000      0.0000       90.00
         4        -0.0000      0.0000     -0.0000     -0.0000       90.00
         5         0.0000      0.0000      0.0000      0.0000       90.00
         6        -0.0000     -0.0000      0.0000     -0.0000       90.00
 1/2[<0|r|b>*<b|rxdel|0> + (<0|rxdel|b>*<b|r|0>)*]
 Rotatory Strengths (R) in cgs (10**-40 erg-esu-cm/Gauss)
       state          XX          YY          ZZ     R(length)
         1         0.0000      0.0000      0.0000      0.0000
         2        -0.0000      0.0000      0.0000     -0.0000
         3         0.0000      0.0000      0.0000      0.0000
         4        -0.0000      0.0000      0.0000     -0.0000
         5         0.0000      0.0000      0.0000      0.0000
         6        -0.0000      0.0000      0.0000     -0.0000
  1/2[<0|del|b>*<b|r|0> + (<0|r|b>*<b|del|0>)*] (Au)
       state          X           Y           Z        Dip. S.   Osc.(frdel)
         1        -0.0000     -0.0000     -0.0000      0.0000      0.0000
         2        -0.0000     -0.0000     -0.8849      0.8849      0.5899
         3        -0.0000     -0.0000     -0.0000      0.0000      0.0000
         4        -0.0000     -0.0000     -0.0000      0.0000      0.0000
         5        -0.0000     -0.0000     -0.0000      0.0000      0.0000
         6        -0.0000     -0.0000     -0.0749      0.0749      0.0499

 Excitation energies and oscillator strengths:
 
 Excited State   1:      Triplet-SGU   10.5819 eV  117.17 nm  f=0.0000  <S**2>=2.000
       1 ->  2         0.70751
       1 ->  4        -0.06330
       1 <-  2         0.06004
       1 <-  4        -0.03119
 This state for optimization and/or second-order correction.
 Total Energy, E(TD-HF/TD-DFT) = -0.786603458543    
 Copying the excited state density for this state as the 1-particle RhoCI density.
 
 Excited State   2:      Singlet-SGU   14.7487 eV   84.06 nm  f=0.6156  <S**2>=0.000
       1 ->  2         0.70797
       1 ->  4         0.05312
       1 <-  2        -0.05629
       1 <-  4         0.02964
 
 Excited State   3:      Triplet-SGG   23.1388 eV   53.58 nm  f=0.0000  <S**2>=2.000
       1 ->  3         0.70783
       1 <-  3         0.03199
 
 Excited State   4:      Singlet-SGG   28.4932 eV   43.51 nm  f=0.0000  <S**2>=0.000
       1 ->  3         0.70833
       1 <-  3        -0.04163
 
 Excited State   5:      Triplet-SGU   35.5849 eV   34.84 nm  f=0.0000  <S**2>=2.000
       1 ->  2         0.05970
       1 ->  4         0.70577
       1 <-  2        -0.02302
       1 <-  4         0.03376
 
 Excited State   6:      Singlet-SGU   42.2899 eV   29.32 nm  f=0.0728  <S**2>=0.000
       1 ->  2        -0.05705
       1 ->  4         0.70629
       1 <-  2         0.03621
       1 <-  4        -0.02803
 SavETr:  write IOETrn=   770 NScale= 10 NData=  16 NLR=1 NState=    6 LETran=     118.
 Leave Link  914 at Sun Apr 14 22:50:21 2024, MaxMem=   536870912 cpu:               0.2 elap:               0.1
 (Enter /usr/appli/g16/c01/g16/l601.exe)
 Copying SCF densities to generalized density rwf, IOpCl= 0 IROHF=0.

 **********************************************************************

            Population analysis using the SCF Density.

 **********************************************************************

 Orbital symmetries:
       Occupied  (SGG)
       Virtual   (SGU) (SGG) (SGU)
 The electronic state is 1-SGG.
 Alpha  occ. eigenvalues --   -0.43396
 Alpha virt. eigenvalues --    0.10009   0.58138   1.10720
          Condensed to atoms (all electrons):
               1          2
     1  H    0.597697   0.402303
     2  H    0.402303   0.597697
 Mulliken charges:
               1
     1  H   -0.000000
     2  H   -0.000000
 Sum of Mulliken charges =  -0.00000
 Mulliken charges with hydrogens summed into heavy atoms:
               1
 Electronic spatial extent (au):  <R**2>=              5.1528
 Charge=             -0.0000 electrons
 Dipole moment (field-independent basis, Debye):
    X=             -0.0000    Y=             -0.0000    Z=             -0.0000  Tot=              0.0000
 Quadrupole moment (field-independent basis, Debye-Ang):
   XX=             -2.0100   YY=             -2.0100   ZZ=             -1.5856
   XY=              0.0000   XZ=             -0.0000   YZ=             -0.0000
 Traceless Quadrupole moment (field-independent basis, Debye-Ang):
   XX=             -0.1415   YY=             -0.1415   ZZ=              0.2830
   XY=              0.0000   XZ=             -0.0000   YZ=             -0.0000
 Octapole moment (field-independent basis, Debye-Ang**2):
  XXX=             -0.0000  YYY=             -0.0000  ZZZ=             -0.0000  XYY=             -0.0000
  XXY=             -0.0000  XXZ=             -0.0000  XZZ=             -0.0000  YZZ=             -0.0000
  YYZ=             -0.0000  XYZ=             -0.0000
 Hexadecapole moment (field-independent basis, Debye-Ang**3):
 XXXX=             -1.8429 YYYY=             -1.8429 ZZZZ=             -2.8027 XXXY=             -0.0000
 XXXZ=              0.0000 YYYX=             -0.0000 YYYZ=              0.0000 ZZZX=              0.0000
 ZZZY=              0.0000 XXYY=             -0.6143 XXZZ=             -0.7854 YYZZ=             -0.7854
 XXYZ=              0.0000 YYXZ=              0.0000 ZZXY=             -0.0000
 N-N= 7.124201243807D-01 E-N=-3.636744655577D+00  KE= 1.143207818353D+00
 Symmetry AG   KE= 1.143207818353D+00
 Symmetry B1G  KE= 0.000000000000D+00
 Symmetry B2G  KE= 0.000000000000D+00
 Symmetry B3G  KE= 0.000000000000D+00
 Symmetry AU   KE= 0.000000000000D+00
 Symmetry B1U  KE= 4.850909901791D-33
 Symmetry B2U  KE= 0.000000000000D+00
 Symmetry B3U  KE= 0.000000000000D+00
 Leave Link  601 at Sun Apr 14 22:50:21 2024, MaxMem=   536870912 cpu:               0.1 elap:               0.0
 (Enter /usr/appli/g16/c01/g16/l9999.exe)
 Electronic transition elements 
                 1             2             3             4             5 
      1  -0.786603D+00 -0.633477D+00 -0.325146D+00 -0.128378D+00  0.132239D+00
      2   0.000000D+00  0.130524D+01  0.000000D+00  0.000000D+00  0.000000D+00
      3   0.000000D+00  0.000000D+00  0.000000D+00  0.000000D+00  0.000000D+00
      4   0.000000D+00  0.000000D+00  0.000000D+00  0.000000D+00  0.000000D+00
      5   0.000000D+00 -0.677975D+00  0.000000D+00  0.000000D+00  0.000000D+00
      6   0.000000D+00  0.000000D+00  0.000000D+00  0.000000D+00  0.000000D+00
      7   0.000000D+00  0.000000D+00  0.000000D+00  0.000000D+00  0.000000D+00
      8   0.000000D+00  0.000000D+00  0.000000D+00  0.000000D+00  0.000000D+00
      9   0.000000D+00  0.000000D+00  0.000000D+00  0.000000D+00  0.000000D+00
     10   0.000000D+00  0.000000D+00  0.000000D+00  0.000000D+00  0.000000D+00
     11   0.000000D+00  0.000000D+00  0.000000D+00 -0.738537D+00  0.000000D+00
     12   0.000000D+00  0.000000D+00  0.000000D+00 -0.955619D+00  0.000000D+00
     13   0.000000D+00  0.000000D+00  0.000000D+00 -0.955619D+00  0.000000D+00
     14   0.000000D+00  0.000000D+00  0.000000D+00  0.000000D+00  0.000000D+00
     15   0.000000D+00  0.000000D+00  0.000000D+00  0.000000D+00  0.000000D+00
     16   0.000000D+00  0.000000D+00  0.000000D+00  0.000000D+00  0.000000D+00
                 6 
      1   0.378641D+00
      2  -0.265146D+00
      3   0.000000D+00
      4   0.000000D+00
      5   0.282448D+00
      6   0.000000D+00
      7   0.000000D+00
      8   0.000000D+00
      9   0.000000D+00
     10   0.000000D+00
     11   0.000000D+00
     12   0.000000D+00
     13   0.000000D+00
     14   0.000000D+00
     15   0.000000D+00
     16   0.000000D+00

 Test job not archived.
 1\1\GINC-FE1\SP\RB3LYP TD-FC\Gen\H2\MOMA3\14-Apr-2024\0\\#P B3LYP/ChkB
 asis TD(50-50, Nstates=5) 6D 10F Geom=Check Guess=Read IOP(9/40=4)\\S0
 \\0,1\H,0,-0.3713940643,0.,0.\H,0,0.3713940643,0.,0.\\Version=ES64L-G1
 6RevC.01\State=1-SGG\HF=-1.1754824\RMSD=0.000e+00\PG=D*H [C*(H1.H1)]\\
 @


 BLACK HOLES SUCK.
 Job cpu time:       0 days  0 hours  0 minutes  1.6 seconds.
 Elapsed time:       0 days  0 hours  0 minutes  0.5 seconds.
 File lengths (MBytes):  RWF=      6 Int=      0 D2E=      0 Chk=      1 Scr=      1
 Normal termination of Gaussian 16 at Sun Apr 14 22:50:21 2024.
