 Entering Gaussian System, Link 0=/usr/appli/g16/c01/g16/.g16
 Input=freq.com
 Output=freq.log
 Initial command:
 /usr/appli/g16/c01/g16/l1.exe "/scratch/gaussian/Gau-588843.inp" -scrdir="/scratch/gaussian/"
 Entering Link 1 = /usr/appli/g16/c01/g16/l1.exe PID=    588844.
  
 Copyright (c) 1988-2019, Gaussian, Inc.  All Rights Reserved.
  
 This is part of the Gaussian(R) 16 program.  It is based on
 the Gaussian(R) 09 system (copyright 2009, Gaussian, Inc.),
 the Gaussian(R) 03 system (copyright 2003, Gaussian, Inc.),
 the Gaussian(R) 98 system (copyright 1998, Gaussian, Inc.),
 the Gaussian(R) 94 system (copyright 1995, Gaussian, Inc.),
 the Gaussian 92(TM) system (copyright 1992, Gaussian, Inc.),
 the Gaussian 90(TM) system (copyright 1990, Gaussian, Inc.),
 the Gaussian 88(TM) system (copyright 1988, Gaussian, Inc.),
 the Gaussian 86(TM) system (copyright 1986, Carnegie Mellon
 University), and the Gaussian 82(TM) system (copyright 1983,
 Carnegie Mellon University). Gaussian is a federally registered
 trademark of Gaussian, Inc.
  
 This software contains proprietary and confidential information,
 including trade secrets, belonging to Gaussian, Inc.
  
 This software is provided under written license and may be
 used, copied, transmitted, or stored only in accord with that
 written license.
  
 The following legend is applicable only to US Government
 contracts under FAR:
  
                    RESTRICTED RIGHTS LEGEND
  
 Use, reproduction and disclosure by the US Government is
 subject to restrictions as set forth in subparagraphs (a)
 and (c) of the Commercial Computer Software - Restricted
 Rights clause in FAR 52.227-19.
  
 Gaussian, Inc.
 340 Quinnipiac St., Bldg. 40, Wallingford CT 06492
  
  
 ---------------------------------------------------------------
 Warning -- This program may not be used in any manner that
 competes with the business of Gaussian, Inc. or will provide
 assistance to any competitor of Gaussian, Inc.  The licensee
 of this program is prohibited from giving any competitor of
 Gaussian, Inc. access to this program.  By using this program,
 the user acknowledges that Gaussian, Inc. is engaged in the
 business of creating and licensing software in the field of
 computational chemistry and represents and warrants to the
 licensee that it is not a competitor of Gaussian, Inc. and that
 it will not use this program in any manner prohibited above.
 ---------------------------------------------------------------
  

 Cite this work as:
 Gaussian 16, Revision C.01,
 M. J. Frisch, G. W. Trucks, H. B. Schlegel, G. E. Scuseria, 
 M. A. Robb, J. R. Cheeseman, G. Scalmani, V. Barone, 
 G. A. Petersson, H. Nakatsuji, X. Li, M. Caricato, A. V. Marenich, 
 J. Bloino, B. G. Janesko, R. Gomperts, B. Mennucci, H. P. Hratchian, 
 J. V. Ortiz, A. F. Izmaylov, J. L. Sonnenberg, D. Williams-Young, 
 F. Ding, F. Lipparini, F. Egidi, J. Goings, B. Peng, A. Petrone, 
 T. Henderson, D. Ranasinghe, V. G. Zakrzewski, J. Gao, N. Rega, 
 G. Zheng, W. Liang, M. Hada, M. Ehara, K. Toyota, R. Fukuda, 
 J. Hasegawa, M. Ishida, T. Nakajima, Y. Honda, O. Kitao, H. Nakai, 
 T. Vreven, K. Throssell, J. A. Montgomery, Jr., J. E. Peralta, 
 F. Ogliaro, M. J. Bearpark, J. J. Heyd, E. N. Brothers, K. N. Kudin, 
 V. N. Staroverov, T. A. Keith, R. Kobayashi, J. Normand, 
 K. Raghavachari, A. P. Rendell, J. C. Burant, S. S. Iyengar, 
 J. Tomasi, M. Cossi, J. M. Millam, M. Klene, C. Adamo, R. Cammi, 
 J. W. Ochterski, R. L. Martin, K. Morokuma, O. Farkas, 
 J. B. Foresman, and D. J. Fox, Gaussian, Inc., Wallingford CT, 2019.
 
 ******************************************
 Gaussian 16:  ES64L-G16RevC.01  3-Jul-2019
                 6-Apr-2024 
 ******************************************
 %mem=4GB
 %nprocshared=4
 Will use up to    4 processors via shared memory.
 %chk=freq.chk
 -----------------------------------------------------------
 #P B3LYP/ChkBasis 6D 10F Freq=HPModes Geom=Check Guess=Read
 -----------------------------------------------------------
 1/10=4,29=2,30=1,38=1/1,3;
 2/12=2,40=1/2;
 3/5=7,6=2,8=22,11=2,14=-4,25=1,30=1,67=1,71=2,74=-5,116=-2,140=1/1,2,3;
 4/5=1/1;
 5/5=2,38=6,98=1/2;
 8/6=4,10=90,11=11/1;
 11/6=1,8=1,9=11,15=111,16=1/1,2,10;
 10/6=1/2;
 6/7=2,8=2,9=2,10=2,28=1/1;
 7/8=11,10=1,25=1/1,2,3,16;
 1/10=4,30=1/3;
 99//99;
 Leave Link    1 at Sat Apr  6 18:27:48 2024, MaxMem=   536870912 cpu:               0.1 elap:               0.0
 (Enter /usr/appli/g16/c01/g16/l101.exe)
 --
 S0
 --
 Structure from the checkpoint file:  "freq.chk"
 Charge =  0 Multiplicity = 1
 Redundant internal coordinates found in file.  (old form).
 C,0,-0.6653586206,0.,0.
 C,0,0.6653586206,0.,0.
 H,0,-1.2402962167,0.9228469531,0.
 H,0,-1.2402962167,-0.9228469531,0.
 H,0,1.2402962167,-0.9228469531,0.
 H,0,1.2402962167,0.9228469531,0.
 Recover connectivity data from disk.
 ITRead=  0  0  0  0  0  0
 MicOpt= -1 -1 -1 -1 -1 -1
 NAtoms=      6 NQM=        6 NQMF=       0 NMMI=      0 NMMIF=      0
                NMic=       0 NMicF=      0.
                    Isotopes and Nuclear Properties:
 (Nuclear quadrupole moments (NQMom) in fm**2, nuclear magnetic moments (NMagM)
  in nuclear magnetons)

  Atom         1           2           3           4           5           6
 IAtWgt=          12          12           1           1           1           1
 AtmWgt=  12.0000000  12.0000000   1.0078250   1.0078250   1.0078250   1.0078250
 NucSpn=           0           0           1           1           1           1
 AtZEff=   3.6000000   3.6000000   1.0000000   1.0000000   1.0000000   1.0000000
 NQMom=    0.0000000   0.0000000   0.0000000   0.0000000   0.0000000   0.0000000
 NMagM=    0.0000000   0.0000000   2.7928460   2.7928460   2.7928460   2.7928460
 AtZNuc=   6.0000000   6.0000000   1.0000000   1.0000000   1.0000000   1.0000000
 Leave Link  101 at Sat Apr  6 18:27:48 2024, MaxMem=   536870912 cpu:               0.4 elap:               0.1
 (Enter /usr/appli/g16/c01/g16/l103.exe)

 GradGradGradGradGradGradGradGradGradGradGradGradGradGradGradGradGradGrad
 Berny optimization.
 Initialization pass.
                           ----------------------------
                           !    Initial Parameters    !
                           ! (Angstroms and Degrees)  !
 --------------------------                            --------------------------
 ! Name  Definition              Value          Derivative Info.                !
 --------------------------------------------------------------------------------
 ! R1    R(1,2)                  1.3307         calculate D2E/DX2 analytically  !
 ! R2    R(1,3)                  1.0873         calculate D2E/DX2 analytically  !
 ! R3    R(1,4)                  1.0873         calculate D2E/DX2 analytically  !
 ! R4    R(2,5)                  1.0873         calculate D2E/DX2 analytically  !
 ! R5    R(2,6)                  1.0873         calculate D2E/DX2 analytically  !
 ! A1    A(2,1,3)              121.9231         calculate D2E/DX2 analytically  !
 ! A2    A(2,1,4)              121.9231         calculate D2E/DX2 analytically  !
 ! A3    A(3,1,4)              116.1538         calculate D2E/DX2 analytically  !
 ! A4    A(1,2,5)              121.9231         calculate D2E/DX2 analytically  !
 ! A5    A(1,2,6)              121.9231         calculate D2E/DX2 analytically  !
 ! A6    A(5,2,6)              116.1538         calculate D2E/DX2 analytically  !
 ! D1    D(3,1,2,5)            180.0            calculate D2E/DX2 analytically  !
 ! D2    D(3,1,2,6)              0.0            calculate D2E/DX2 analytically  !
 ! D3    D(4,1,2,5)              0.0            calculate D2E/DX2 analytically  !
 ! D4    D(4,1,2,6)            180.0            calculate D2E/DX2 analytically  !
 --------------------------------------------------------------------------------
 Trust Radius=3.00D-01 FncErr=1.00D-07 GrdErr=1.00D-07 EigMax=2.50D+02 EigMin=1.00D-04
 Number of steps in this run=      2 maximum allowed number of steps=      2.
 GradGradGradGradGradGradGradGradGradGradGradGradGradGradGradGradGradGrad

 Leave Link  103 at Sat Apr  6 18:27:48 2024, MaxMem=   536870912 cpu:               0.0 elap:               0.0
 (Enter /usr/appli/g16/c01/g16/l202.exe)
                          Input orientation:                          
 ---------------------------------------------------------------------
 Center     Atomic      Atomic             Coordinates (Angstroms)
 Number     Number       Type             X           Y           Z
 ---------------------------------------------------------------------
      1          6           0       -0.665359   -0.000000   -0.000000
      2          6           0        0.665359    0.000000    0.000000
      3          1           0       -1.240296    0.922847   -0.000000
      4          1           0       -1.240296   -0.922847   -0.000000
      5          1           0        1.240296   -0.922847    0.000000
      6          1           0        1.240296    0.922847    0.000000
 ---------------------------------------------------------------------
                    Distance matrix (angstroms):
                    1          2          3          4          5
     1  C    0.000000
     2  C    1.330717   0.000000
     3  H    1.087290   2.117349   0.000000
     4  H    1.087290   2.117349   1.845694   0.000000
     5  H    2.117349   1.087290   3.091913   2.480592   0.000000
     6  H    2.117349   1.087290   2.480592   3.091913   1.845694
                    6
     6  H    0.000000
 Stoichiometry    C2H4
 Framework group  D2H[C2"(C.C),SG(H4)]
 Deg. of freedom     3
 Full point group                 D2H     NOp   8
 RotChk:  IX=0 Diff= 6.64D-16
 Largest Abelian subgroup         D2H     NOp   8
 Largest concise Abelian subgroup D2      NOp   4
                         Standard orientation:                         
 ---------------------------------------------------------------------
 Center     Atomic      Atomic             Coordinates (Angstroms)
 Number     Number       Type             X           Y           Z
 ---------------------------------------------------------------------
      1          6           0        0.000000    0.000000    0.665359
      2          6           0        0.000000    0.000000   -0.665359
      3          1           0       -0.000000    0.922847    1.240296
      4          1           0       -0.000000   -0.922847    1.240296
      5          1           0       -0.000000   -0.922847   -1.240296
      6          1           0        0.000000    0.922847   -1.240296
 ---------------------------------------------------------------------
 Rotational constants (GHZ):         147.2016574          30.0349948          24.9451846
 Leave Link  202 at Sat Apr  6 18:27:48 2024, MaxMem=   536870912 cpu:               0.0 elap:               0.0
 (Enter /usr/appli/g16/c01/g16/l301.exe)
 Basis read from chk: "freq.chk" (6D, 10F)
 No pseudopotential information found on chk file.
 There are    10 symmetry adapted cartesian basis functions of AG  symmetry.
 There are     1 symmetry adapted cartesian basis functions of B1G symmetry.
 There are     3 symmetry adapted cartesian basis functions of B2G symmetry.
 There are     5 symmetry adapted cartesian basis functions of B3G symmetry.
 There are     1 symmetry adapted cartesian basis functions of AU  symmetry.
 There are    10 symmetry adapted cartesian basis functions of B1U symmetry.
 There are     5 symmetry adapted cartesian basis functions of B2U symmetry.
 There are     3 symmetry adapted cartesian basis functions of B3U symmetry.
 There are    10 symmetry adapted basis functions of AG  symmetry.
 There are     1 symmetry adapted basis functions of B1G symmetry.
 There are     3 symmetry adapted basis functions of B2G symmetry.
 There are     5 symmetry adapted basis functions of B3G symmetry.
 There are     1 symmetry adapted basis functions of AU  symmetry.
 There are    10 symmetry adapted basis functions of B1U symmetry.
 There are     5 symmetry adapted basis functions of B2U symmetry.
 There are     3 symmetry adapted basis functions of B3U symmetry.
    38 basis functions,    72 primitive gaussians,    38 cartesian basis functions
     8 alpha electrons        8 beta electrons
       nuclear repulsion energy        33.3370772773 Hartrees.
 IExCor=  402 DFT=T Ex+Corr=B3LYP ExCW=0 ScaHFX=  0.200000
 ScaDFX=  0.800000  0.720000  1.000000  0.810000 ScalE2=  1.000000  1.000000
 IRadAn=      5 IRanWt=     -1 IRanGd=            0 ICorTp=0 IEmpDi=  4
 NAtoms=    6 NActive=    6 NUniq=    2 SFac= 4.00D+00 NAtFMM=   60 NAOKFM=F Big=F
 Integral buffers will be    131072 words long.
 Raffenetti 2 integral format.
 Two-electron integral symmetry is turned on.
 No density basis found on file  20724.
 Leave Link  301 at Sat Apr  6 18:27:48 2024, MaxMem=   536870912 cpu:               0.1 elap:               0.0
 (Enter /usr/appli/g16/c01/g16/l302.exe)
 NPDir=0 NMtPBC=     1 NCelOv=     1 NCel=       1 NClECP=     1 NCelD=      1
         NCelK=      1 NCelE2=     1 NClLst=     1 CellRange=     0.0.
 One-electron integrals computed using PRISM.
 One-electron integral symmetry used in STVInt
 NBasis=    38 RedAO= T EigKep=  7.64D-03  NBF=    10     1     3     5     1    10     5     3
 NBsUse=    38 1.00D-06 EigRej= -1.00D+00 NBFU=    10     1     3     5     1    10     5     3
 Precomputing XC quadrature grid using
 IXCGrd= 4 IRadAn=           5 IRanWt=          -1 IRanGd=           0 AccXCQ= 0.00D+00.
 Generated NRdTot=       0 NPtTot=           0 NUsed=           0 NTot=          32
 NSgBfM=    38    38    38    38    38 MxSgAt=     6 MxSgA2=     6.
 Leave Link  302 at Sat Apr  6 18:27:48 2024, MaxMem=   536870912 cpu:               0.2 elap:               0.1
 (Enter /usr/appli/g16/c01/g16/l303.exe)
 DipDrv:  MaxL=1.
 Leave Link  303 at Sat Apr  6 18:27:48 2024, MaxMem=   536870912 cpu:               0.1 elap:               0.0
 (Enter /usr/appli/g16/c01/g16/l401.exe)
 Initial guess from the checkpoint file:  "freq.chk"
 B after Tr=    -0.000000    0.000000    0.000000
         Rot=    1.000000    0.000000    0.000000    0.000000 Ang=   0.00 deg.
 Guess basis will be translated and rotated to current coordinates.
 JPrj=2 DoOrth=T DoCkMO=T.
 Initial guess orbital symmetries:
       Occupied  (AG) (B1U) (AG) (B1U) (B2U) (AG) (B3G) (B3U)
       Virtual   (B2G) (AG) (B2U) (B1U) (B3G) (B1U) (AG) (B3U)
                 (B2U) (B2G) (AG) (B1U) (B2U) (B3G) (B1U) (AG)
                 (B1U) (B3G) (B3U) (B1G) (AU) (AG) (B2U) (AG) (B1U)
                 (B2G) (B3G) (B1U) (AG) (B1U)
 The electronic state of the initial guess is 1-AG.
 Leave Link  401 at Sat Apr  6 18:27:49 2024, MaxMem=   536870912 cpu:               0.7 elap:               0.2
 (Enter /usr/appli/g16/c01/g16/l502.exe)
 Keep R1 ints in memory in symmetry-blocked form, NReq=3736241.
 FoFCou: FMM=F IPFlag=           0 FMFlag=           0 FMFlg1=           0
         NFxFlg=           0 DoJE=F BraDBF=F KetDBF=F FulRan=T
         wScrn=  0.000000 ICntrl=       600 IOpCl=  0 I1Cent=           0 NGrid=           0
         NMat0=    1 NMatS0=    741 NMatT0=    0 NMatD0=    1 NMtDS0=    0 NMtDT0=    0
 Petite list used in FoFCou.
 Closed shell SCF:
 Using DIIS extrapolation, IDIIS=  1040.
 NGot=   536870912 LenX=   536823007 LenY=   536821122
 Requested convergence on RMS density matrix=1.00D-08 within 128 cycles.
 Requested convergence on MAX density matrix=1.00D-06.
 Requested convergence on             energy=1.00D-06.
 No special actions if energy rises.

 Cycle   1  Pass 1  IDiag  1:
 E= -78.5874578398065    
 DIIS: error= 1.07D-09 at cycle   1 NSaved=   1.
 NSaved= 1 IEnMin= 1 EnMin= -78.5874578398065     IErMin= 1 ErrMin= 1.07D-09
 ErrMax= 1.07D-09  0.00D+00 EMaxC= 1.00D-01 BMatC= 1.72D-17 BMatP= 1.72D-17
 IDIUse=1 WtCom= 1.00D+00 WtEn= 0.00D+00
 Coeff-Com:  0.100D+01
 Coeff:      0.100D+01
 Gap=     0.285 Goal=   None    Shift=    0.000
 RMSDP=2.05D-10 MaxDP=1.98D-09              OVMax= 2.65D-09

 SCF Done:  E(RB3LYP) =  -78.5874578398     A.U. after    1 cycles
            NFock=  1  Conv=0.20D-09     -V/T= 2.0105
 KE= 7.777154427757D+01 PE=-2.480604186270D+02 EE= 5.836433923235D+01
 Leave Link  502 at Sat Apr  6 18:27:49 2024, MaxMem=   536870912 cpu:               0.3 elap:               0.1
 (Enter /usr/appli/g16/c01/g16/l801.exe)
 DoSCS=F DFT=T ScalE2(SS,OS)=  1.000000  1.000000
 Range of M.O.s used for correlation:     1    38
 NBasis=    38 NAE=     8 NBE=     8 NFC=     0 NFV=     0
 NROrb=     38 NOA=     8 NOB=     8 NVA=    30 NVB=    30
 Leave Link  801 at Sat Apr  6 18:27:49 2024, MaxMem=   536870912 cpu:               0.1 elap:               0.0
 (Enter /usr/appli/g16/c01/g16/l1101.exe)
 Using compressed storage, NAtomX=     6.
 Will process      7 centers per pass.
 Leave Link 1101 at Sat Apr  6 18:27:49 2024, MaxMem=   536870912 cpu:               0.2 elap:               0.1
 (Enter /usr/appli/g16/c01/g16/l1102.exe)
 Symmetrizing basis deriv contribution to polar:
 IMax=3 JMax=2 DiffMx= 0.00D+00
 Leave Link 1102 at Sat Apr  6 18:27:49 2024, MaxMem=   536870912 cpu:               0.1 elap:               0.0
 (Enter /usr/appli/g16/c01/g16/l1110.exe)
 Forming Gx(P) for the SCF density, NAtomX=     6.
 Integral derivatives from FoFJK, PRISM(SPDF).
 Do as many integral derivatives as possible in FoFJK.
 G2DrvN: MDV=     536870170.
 G2DrvN: will do     7 centers at a time, making    1 passes.
 Calling FoFCou, ICntrl=  3107 FMM=F I1Cent=   0 AccDes= 0.00D+00.
 FoFJK:  IHMeth= 1 ICntrl=    3107 DoSepK=F KAlg= 0 I1Cent=           0 FoldK=F
 IRaf=         0 NMat=       1 IRICut=       1 DoRegI=T DoRafI=F ISym2E= 1 IDoP0=0 IntGTp=1.
 FoFCou: FMM=F IPFlag=           0 FMFlag=      100000 FMFlg1=           0
         NFxFlg=           0 DoJE=F BraDBF=F KetDBF=F FulRan=T
         wScrn=  0.000000 ICntrl=      3107 IOpCl=  0 I1Cent=           0 NGrid=           0
         NMat0=    1 NMatS0=      1 NMatT0=    0 NMatD0=    1 NMtDS0=    0 NMtDT0=    0
 Petite list used in FoFCou.
 End of G2Drv F.D. properties file   721 does not exist.
 End of G2Drv F.D. properties file   722 does not exist.
 End of G2Drv F.D. properties file   788 does not exist.
 Leave Link 1110 at Sat Apr  6 18:27:50 2024, MaxMem=   536870912 cpu:               0.7 elap:               0.2
 (Enter /usr/appli/g16/c01/g16/l1002.exe)
 Minotr:  Closed shell wavefunction.
          IDoAtm=111111
          Direct CPHF calculation.
          Differentiating once with respect to electric field.
                with respect to dipole field.
          Differentiating once with respect to nuclear coordinates.
          Using symmetry in CPHF.
          Requested convergence is 1.0D-08 RMS, and 1.0D-07 maximum.
          Secondary convergence is 1.0D-12 RMS, and 1.0D-12 maximum.
          NewPWx=T KeepS1=F KeepF1=F KeepIn=T MapXYZ=F SortEE=F KeepMc=T.
         1733 words used for storage of precomputed grid.
 Keep R1 ints in memory in symmetry-blocked form, NReq=3727772.
 FoFCou: FMM=F IPFlag=           0 FMFlag=           0 FMFlg1=           0
         NFxFlg=           0 DoJE=F BraDBF=F KetDBF=F FulRan=T
         wScrn=  0.000000 ICntrl=       600 IOpCl=  0 I1Cent=           0 NGrid=           0
         NMat0=    1 NMatS0=    741 NMatT0=    0 NMatD0=    1 NMtDS0=    0 NMtDT0=    0
 Petite list used in FoFCou.
          MDV=     536870912 using IRadAn=       1.
          Solving linear equations simultaneously, MaxMat=       0.
          There are     9 degrees of freedom in the 1st order CPHF.  IDoFFX=4 NUNeed=     9.
      9 vectors produced by pass  0 Test12= 2.67D-15 1.11D-08 XBig12= 3.13D+01 4.78D+00.
 AX will form     9 AO Fock derivatives at one time.
      9 vectors produced by pass  1 Test12= 2.67D-15 1.11D-08 XBig12= 6.92D+00 1.07D+00.
      9 vectors produced by pass  2 Test12= 2.67D-15 1.11D-08 XBig12= 1.41D-01 1.34D-01.
      9 vectors produced by pass  3 Test12= 2.67D-15 1.11D-08 XBig12= 8.35D-04 1.64D-02.
      9 vectors produced by pass  4 Test12= 2.67D-15 1.11D-08 XBig12= 3.61D-06 7.66D-04.
      7 vectors produced by pass  5 Test12= 2.67D-15 1.11D-08 XBig12= 2.48D-09 1.52D-05.
      2 vectors produced by pass  6 Test12= 2.67D-15 1.11D-08 XBig12= 2.53D-12 4.74D-07.
      1 vectors produced by pass  7 Test12= 2.67D-15 1.11D-08 XBig12= 2.23D-15 1.26D-08.
 InvSVY:  IOpt=1 It=  1 EMax= 8.92D-16
 Solved reduced A of dimension    55 with     9 vectors.
 FullF1:  Do perturbations      1 to       9.
 Isotropic polarizability for W=    0.000000       19.90 Bohr**3.
 End of Minotr F.D. properties file   721 does not exist.
 End of Minotr F.D. properties file   722 does not exist.
 End of Minotr F.D. properties file   788 does not exist.
 Leave Link 1002 at Sat Apr  6 18:27:51 2024, MaxMem=   536870912 cpu:               1.7 elap:               0.5
 (Enter /usr/appli/g16/c01/g16/l601.exe)
 Copying SCF densities to generalized density rwf, IOpCl= 0 IROHF=0.

 **********************************************************************

            Population analysis using the SCF Density.

 **********************************************************************

 Orbital symmetries:
       Occupied  (AG) (B1U) (AG) (B1U) (B2U) (AG) (B3G) (B3U)
       Virtual   (B2G) (AG) (B2U) (B1U) (B3G) (B1U) (AG) (B3U)
                 (B2U) (B2G) (AG) (B1U) (B2U) (B3G) (B1U) (AG)
                 (B1U) (B3G) (B3U) (B1G) (AU) (AG) (B2U) (AG) (B1U)
                 (B2G) (B3G) (B1U) (AG) (B1U)
 The electronic state is 1-AG.
 Alpha  occ. eigenvalues --  -10.18424 -10.18335  -0.75478  -0.57750  -0.46454
 Alpha  occ. eigenvalues --   -0.41669  -0.35310  -0.26667
 Alpha virt. eigenvalues --    0.01881   0.12257   0.14024   0.15756   0.24412
 Alpha virt. eigenvalues --    0.33263   0.48036   0.54843   0.56812   0.63728
 Alpha virt. eigenvalues --    0.65546   0.69905   0.84753   0.87229   0.93210
 Alpha virt. eigenvalues --    0.94148   1.10576   1.21452   1.46273   1.54514
 Alpha virt. eigenvalues --    1.83301   1.89014   1.98850   2.08810   2.28492
 Alpha virt. eigenvalues --    2.38638   2.70330   2.70551   4.09706   4.24638
          Condensed to atoms (all electrons):
               1          2          3          4          5          6
     1  C    4.913943   0.687342   0.377545   0.377545  -0.035439  -0.035439
     2  C    0.687342   4.913943  -0.035439  -0.035439   0.377545   0.377545
     3  H    0.377545  -0.035439   0.562426  -0.043701   0.005142  -0.008720
     4  H    0.377545  -0.035439  -0.043701   0.562426  -0.008720   0.005142
     5  H   -0.035439   0.377545   0.005142  -0.008720   0.562426  -0.043701
     6  H   -0.035439   0.377545  -0.008720   0.005142  -0.043701   0.562426
 Mulliken charges:
               1
     1  C   -0.285496
     2  C   -0.285496
     3  H    0.142748
     4  H    0.142748
     5  H    0.142748
     6  H    0.142748
 Sum of Mulliken charges =   0.00000
 Mulliken charges with hydrogens summed into heavy atoms:
               1
     1  C    0.000000
     2  C    0.000000
 APT charges:
               1
     1  C   -0.040972
     2  C   -0.040972
     3  H    0.020486
     4  H    0.020486
     5  H    0.020486
     6  H    0.020486
 Sum of APT charges =  -0.00000
 APT charges with hydrogens summed into heavy atoms:
               1
     1  C   -0.000000
     2  C    0.000000
 Electronic spatial extent (au):  <R**2>=             82.2117
 Charge=              0.0000 electrons
 Dipole moment (field-independent basis, Debye):
    X=             -0.0000    Y=             -0.0000    Z=              0.0000  Tot=              0.0000
 Quadrupole moment (field-independent basis, Debye-Ang):
   XX=            -15.0296   YY=            -12.1241   ZZ=            -11.9889
   XY=              0.0000   XZ=             -0.0000   YZ=             -0.0000
 Traceless Quadrupole moment (field-independent basis, Debye-Ang):
   XX=             -1.9821   YY=              0.9235   ZZ=              1.0586
   XY=              0.0000   XZ=             -0.0000   YZ=             -0.0000
 Octapole moment (field-independent basis, Debye-Ang**2):
  XXX=             -0.0000  YYY=             -0.0000  ZZZ=              0.0000  XYY=             -0.0000
  XXY=             -0.0000  XXZ=             -0.0000  XZZ=             -0.0000  YZZ=              0.0000
  YYZ=              0.0000  XYZ=             -0.0000
 Hexadecapole moment (field-independent basis, Debye-Ang**3):
 XXXX=            -15.5753 YYYY=            -26.1664 ZZZZ=            -66.7108 XXXY=             -0.0000
 XXXZ=              0.0000 YYYX=             -0.0000 YYYZ=              0.0000 ZZZX=              0.0000
 ZZZY=              0.0000 XXYY=             -7.5180 XXZZ=            -14.5842 YYZZ=            -13.2626
 XXYZ=              0.0000 YYXZ=              0.0000 ZZXY=              0.0000
 N-N= 3.333707727729D+01 E-N=-2.480604186779D+02  KE= 7.777154427757D+01
 Symmetry AG   KE= 3.738237051254D+01
 Symmetry B1G  KE= 3.038103228166D-34
 Symmetry B2G  KE= 1.875723465324D-32
 Symmetry B3G  KE= 2.094652918787D+00
 Symmetry AU   KE= 3.439640949093D-34
 Symmetry B1U  KE= 3.432889332387D+01
 Symmetry B2U  KE= 1.878909965564D+00
 Symmetry B3U  KE= 2.086717556814D+00
  Exact polarizability:       8.509       0.000      20.392      -0.000      -0.000      30.789
 Approx polarizability:      11.014       0.000      25.255      -0.000      -0.000      46.725
 No NMR shielding tensors so no spin-rotation constants.
 Leave Link  601 at Sat Apr  6 18:27:51 2024, MaxMem=   536870912 cpu:               0.2 elap:               0.1
 (Enter /usr/appli/g16/c01/g16/l701.exe)
 ... and contract with generalized density number  0.
 Compute integral second derivatives.
 Leave Link  701 at Sat Apr  6 18:27:51 2024, MaxMem=   536870912 cpu:               0.3 elap:               0.1
 (Enter /usr/appli/g16/c01/g16/l702.exe)
 L702 exits ... SP integral derivatives will be done elsewhere.
 Leave Link  702 at Sat Apr  6 18:27:51 2024, MaxMem=   536870912 cpu:               0.1 elap:               0.0
 (Enter /usr/appli/g16/c01/g16/l703.exe)
 Integral derivatives from FoFJK, PRISM(SPDF).
 Compute integral second derivatives, UseDBF=F ICtDFT=           0.
 Calling FoFJK, ICntrl=    100127 FMM=F ISym2X=1 I1Cent= 0 IOpClX= 0 NMat=1 NMatS=1 NMatT=0.
 FoFJK:  IHMeth= 1 ICntrl=  100127 DoSepK=F KAlg= 0 I1Cent=           0 FoldK=F
 IRaf=         0 NMat=       1 IRICut=       1 DoRegI=T DoRafI=F ISym2E= 1 IDoP0=0 IntGTp=1.
 FoFCou: FMM=F IPFlag=           0 FMFlag=      100000 FMFlg1=         800
         NFxFlg=           0 DoJE=F BraDBF=F KetDBF=F FulRan=T
         wScrn=  0.000000 ICntrl=    100127 IOpCl=  0 I1Cent=           0 NGrid=           0
         NMat0=    1 NMatS0=      1 NMatT0=    0 NMatD0=    1 NMtDS0=    0 NMtDT0=    0
 Petite list used in FoFCou.
 Leave Link  703 at Sat Apr  6 18:27:51 2024, MaxMem=   536870912 cpu:               1.1 elap:               0.3
 (Enter /usr/appli/g16/c01/g16/l716.exe)
 Dipole        =-5.12336817D-17-1.37380789D-16 7.60078270D-16
 Polarizability= 8.50913767D+00 2.06696745D-15 2.03916907D+01
                -6.45627005D-16-5.28113595D-09 3.07885347D+01
 Full mass-weighted force constant matrix:
 Low frequencies ---  -56.0856  -24.1748   -8.3671   -0.0005    0.0003    0.0010
 Low frequencies ---  833.1738  955.8240  976.0545
 Diagonal vibrational polarizability:
        2.3412923       0.1150013       0.1138834
 Harmonic frequencies (cm**-1), IR intensities (KM/Mole), Raman scattering
 activities (A**4/AMU), depolarization ratios for plane and unpolarized
 incident light, reduced masses (AMU), force constants (mDyne/A),
 and normal coordinates:
                           1         2         3         4         5
                          B2U       B2G       B3U       AU        B3G
       Frequencies ---   833.1738  955.8237  976.0545 1069.3770 1247.0038
    Reduced masses ---     1.0428    1.5215    1.1607    1.0078    1.5261
   Force constants ---     0.4265    0.8190    0.6515    0.6790    1.3982
    IR Intensities ---     0.7533    0.0000   82.8840    0.0000    0.0000
 Coord Atom Element:
   1     1     6         -0.00000   0.15286  -0.08340  -0.00000   0.00000
   2     1     6          0.03991   0.00000   0.00000  -0.00000   0.15353
   3     1     6         -0.00000  -0.00000   0.00000  -0.00000   0.00000
   1     2     6          0.00000  -0.15286  -0.08340   0.00000   0.00000
   2     2     6          0.03991  -0.00000  -0.00000   0.00000  -0.15353
   3     2     6          0.00000   0.00000  -0.00000  -0.00000   0.00000
   1     3     1         -0.00000  -0.48818   0.49651   0.50000  -0.00000
   2     3     1         -0.23759  -0.00000  -0.00000  -0.00000  -0.14316
   3     3     1          0.43904   0.00000   0.00000  -0.00000   0.46660
   1     4     1          0.00000  -0.48818   0.49651  -0.50000  -0.00000
   2     4     1         -0.23759  -0.00000   0.00000  -0.00000  -0.14316
   3     4     1         -0.43904  -0.00000  -0.00000   0.00000  -0.46660
   1     5     1         -0.00000   0.48818   0.49651   0.50000  -0.00000
   2     5     1         -0.23759   0.00000   0.00000   0.00000   0.14316
   3     5     1          0.43904   0.00000   0.00000   0.00000  -0.46660
   1     6     1         -0.00000   0.48818   0.49651  -0.50000  -0.00000
   2     6     1         -0.23759   0.00000   0.00000  -0.00000   0.14316
   3     6     1         -0.43904  -0.00000   0.00000  -0.00000   0.46660
                           6         7         8         9        10
                          AG        B1U       AG        B1U       AG
       Frequencies ---  1396.0851 1494.7057 1720.9675 3153.8565 3169.3478
    Reduced masses ---     1.2259    1.1118    3.1168    1.0478    1.0739
   Force constants ---     1.4077    1.4635    5.4388    6.1409    6.3554
    IR Intensities ---     0.0000    5.2411    0.0000   18.7589    0.0000
 Coord Atom Element:
   1     1     6          0.00000   0.00000   0.00000  -0.00000  -0.00000
   2     1     6          0.00000   0.00000  -0.00000  -0.00000   0.00000
   3     1     6          0.09959  -0.06878   0.30973  -0.04267  -0.05481
   1     2     6         -0.00000   0.00000  -0.00000   0.00000  -0.00000
   2     2     6          0.00000  -0.00000  -0.00000   0.00000   0.00000
   3     2     6         -0.09959  -0.06878  -0.30973  -0.04267   0.05481
   1     3     1         -0.00000  -0.00000  -0.00000  -0.00000   0.00000
   2     3     1         -0.19589  -0.28277   0.37990   0.42962   0.42784
   3     3     1          0.45461   0.40948  -0.24023   0.25401   0.25584
   1     4     1         -0.00000  -0.00000  -0.00000   0.00000   0.00000
   2     4     1          0.19589   0.28277  -0.37990  -0.42962  -0.42784
   3     4     1          0.45461   0.40948  -0.24023   0.25401   0.25584
   1     5     1          0.00000  -0.00000   0.00000  -0.00000   0.00000
   2     5     1          0.19589  -0.28277  -0.37990   0.42962  -0.42784
   3     5     1         -0.45461   0.40948   0.24023   0.25401  -0.25584
   1     6     1          0.00000  -0.00000   0.00000   0.00000   0.00000
   2     6     1         -0.19589   0.28277   0.37990  -0.42962   0.42784
   3     6     1         -0.45461   0.40948   0.24023   0.25401  -0.25584
                          11        12
                          B3G       B2U
       Frequencies ---  3223.5724 3249.0896
    Reduced masses ---     1.1149    1.1175
   Force constants ---     6.8259    6.9507
    IR Intensities ---     0.0000   33.6561
 Coord Atom Element:
   1     1     6          0.00000   0.00000
   2     1     6         -0.06979  -0.07064
   3     1     6          0.00000  -0.00000
   1     2     6         -0.00000   0.00000
   2     2     6          0.06979  -0.07064
   3     2     6          0.00000   0.00000
   1     3     1          0.00000  -0.00000
   2     3     1          0.42063   0.42054
   3     3     1          0.26577   0.26580
   1     4     1         -0.00000  -0.00000
   2     4     1          0.42063   0.42054
   3     4     1         -0.26577  -0.26580
   1     5     1          0.00000  -0.00000
   2     5     1         -0.42063   0.42054
   3     5     1         -0.26577   0.26580
   1     6     1          0.00000  -0.00000
   2     6     1         -0.42063   0.42054
   3     6     1          0.26577  -0.26580
 Harmonic frequencies (cm**-1), IR intensities (KM/Mole), Raman scattering
 activities (A**4/AMU), depolarization ratios for plane and unpolarized
 incident light, reduced masses (AMU), force constants (mDyne/A),
 and normal coordinates:
                      1                      2                      3
                     B2U                    B2G                    B3U
 Frequencies --    833.1738               955.8237               976.0545
 Red. masses --      1.0428                 1.5215                 1.1607
 Frc consts  --      0.4265                 0.8190                 0.6515
 IR Inten    --      0.7533                 0.0000                82.8840
  Atom  AN      X      Y      Z        X      Y      Z        X      Y      Z
     1   6    -0.00   0.04  -0.00     0.15   0.00  -0.00    -0.08   0.00   0.00
     2   6     0.00   0.04   0.00    -0.15  -0.00   0.00    -0.08  -0.00  -0.00
     3   1    -0.00  -0.24   0.44    -0.49  -0.00   0.00     0.50  -0.00   0.00
     4   1     0.00  -0.24  -0.44    -0.49  -0.00  -0.00     0.50   0.00  -0.00
     5   1    -0.00  -0.24   0.44     0.49   0.00   0.00     0.50   0.00   0.00
     6   1    -0.00  -0.24  -0.44     0.49   0.00  -0.00     0.50   0.00   0.00
                      4                      5                      6
                     AU                     B3G                    AG
 Frequencies --   1069.3770              1247.0038              1396.0851
 Red. masses --      1.0078                 1.5261                 1.2259
 Frc consts  --      0.6790                 1.3982                 1.4077
 IR Inten    --      0.0000                 0.0000                 0.0000
  Atom  AN      X      Y      Z        X      Y      Z        X      Y      Z
     1   6    -0.00  -0.00  -0.00     0.00   0.15   0.00     0.00   0.00   0.10
     2   6     0.00   0.00  -0.00     0.00  -0.15   0.00    -0.00   0.00  -0.10
     3   1     0.50  -0.00  -0.00    -0.00  -0.14   0.47    -0.00  -0.20   0.45
     4   1    -0.50  -0.00   0.00    -0.00  -0.14  -0.47    -0.00   0.20   0.45
     5   1     0.50   0.00   0.00    -0.00   0.14  -0.47     0.00   0.20  -0.45
     6   1    -0.50  -0.00  -0.00    -0.00   0.14   0.47     0.00  -0.20  -0.45
                      7                      8                      9
                     B1U                    AG                     B1U
 Frequencies --   1494.7057              1720.9675              3153.8565
 Red. masses --      1.1118                 3.1168                 1.0478
 Frc consts  --      1.4635                 5.4388                 6.1409
 IR Inten    --      5.2411                 0.0000                18.7589
  Atom  AN      X      Y      Z        X      Y      Z        X      Y      Z
     1   6     0.00   0.00  -0.07     0.00  -0.00   0.31    -0.00  -0.00  -0.04
     2   6     0.00  -0.00  -0.07    -0.00  -0.00  -0.31     0.00   0.00  -0.04
     3   1    -0.00  -0.28   0.41    -0.00   0.38  -0.24    -0.00   0.43   0.25
     4   1    -0.00   0.28   0.41    -0.00  -0.38  -0.24     0.00  -0.43   0.25
     5   1    -0.00  -0.28   0.41     0.00  -0.38   0.24    -0.00   0.43   0.25
     6   1    -0.00   0.28   0.41     0.00   0.38   0.24     0.00  -0.43   0.25
                     10                     11                     12
                     AG                     B3G                    B2U
 Frequencies --   3169.3478              3223.5724              3249.0896
 Red. masses --      1.0739                 1.1149                 1.1175
 Frc consts  --      6.3554                 6.8259                 6.9507
 IR Inten    --      0.0000                 0.0000                33.6561
  Atom  AN      X      Y      Z        X      Y      Z        X      Y      Z
     1   6    -0.00   0.00  -0.05     0.00  -0.07   0.00     0.00  -0.07  -0.00
     2   6    -0.00   0.00   0.05    -0.00   0.07   0.00     0.00  -0.07   0.00
     3   1     0.00   0.43   0.26     0.00   0.42   0.27    -0.00   0.42   0.27
     4   1     0.00  -0.43   0.26    -0.00   0.42  -0.27    -0.00   0.42  -0.27
     5   1     0.00  -0.43  -0.26     0.00  -0.42  -0.27    -0.00   0.42   0.27
     6   1     0.00   0.43  -0.26     0.00  -0.42   0.27    -0.00   0.42  -0.27

 -------------------
 - Thermochemistry -
 -------------------
 Temperature   298.150 Kelvin.  Pressure   1.00000 Atm.
 Atom     1 has atomic number  6 and mass  12.00000
 Atom     2 has atomic number  6 and mass  12.00000
 Atom     3 has atomic number  1 and mass   1.00783
 Atom     4 has atomic number  1 and mass   1.00783
 Atom     5 has atomic number  1 and mass   1.00783
 Atom     6 has atomic number  1 and mass   1.00783
 Molecular mass:    28.03130 amu.
 Principal axes and moments of inertia in atomic units:
                           1         2         3
     Eigenvalues --    12.26033  60.08795  72.34828
           X            0.00000  -0.00000   1.00000
           Y            0.00000   1.00000   0.00000
           Z            1.00000  -0.00000  -0.00000
 This molecule is an asymmetric top.
 Rotational symmetry number  4.
 Rotational temperatures (Kelvin)      7.06457     1.44145     1.19718
 Rotational constants (GHZ):         147.20166    30.03499    24.94518
 Zero-point vibrational energy     134514.4 (Joules/Mol)
                                   32.14972 (Kcal/Mol)
 Vibrational temperatures:   1198.75  1375.22  1404.32  1538.60  1794.16
          (Kelvin)           2008.66  2150.55  2476.09  4537.70  4559.98
                             4638.00  4674.72
 
 Zero-point correction=                           0.051234 (Hartree/Particle)
 Thermal correction to Energy=                    0.054276
 Thermal correction to Enthalpy=                  0.055221
 Thermal correction to Gibbs Free Energy=         0.030359
 Sum of electronic and zero-point Energies=            -78.536224
 Sum of electronic and thermal Energies=               -78.533181
 Sum of electronic and thermal Enthalpies=             -78.532237
 Sum of electronic and thermal Free Energies=          -78.557099
 
                     E (Thermal)             CV                S
                      KCal/Mol        Cal/Mol-Kelvin    Cal/Mol-Kelvin
 Total                   34.059              8.093             52.325
 Electronic               0.000              0.000              0.000
 Translational            0.889              2.981             35.927
 Rotational               0.889              2.981             15.862
 Vibrational             32.281              2.131              0.536
                       Q            Log10(Q)             Ln(Q)
 Total Bot       0.108587D-13        -13.964222        -32.153810
 Total V=0       0.399658D+10          9.601689         22.108705
 Vib (Bot)       0.284914D-23        -23.545286        -54.215023
 Vib (V=0)       0.104864D+01          0.020625          0.047492
 Electronic      0.100000D+01          0.000000          0.000000
 Translational   0.583336D+07          6.765919         15.579104
 Rotational      0.653348D+03          2.815145          6.482110
 
                                                                  S0
                                                             IR Spectrum
 
     33 33                                                       1        1   1     1      1                                         
     22 11                                                       7        4   3     2      0  99    8                                
     42 65                                                       2        9   9     4      6  75    3                                
     94 94                                                       1        5   6     7      9  66    3                                
 
     X   X                                                                X                   X     X                                
     X   X                                                                                    X                                      
     X   X                                                                                    X                                      
     X   X                                                                                    X                                      
     X   X                                                                                    X                                      
     X                                                                                        X                                      
     X                                                                                        X                                      
     X                                                                                        X                                      
                                                                                              X                                      
                                                                                              X                                      
                                                                                              X                                      
                                                                                              X                                      
                                                                                              X                                      
                                                                                              X                                      
                                                                                              X                                      
                                                                                              X                                      
                                                                                              X                                      
                                                                                              X                                      
                                                                                              X                                      
                                                                                              X                                      
 
 ***** Axes restored to original set *****
 -------------------------------------------------------------------
 Center     Atomic                   Forces (Hartrees/Bohr)
 Number     Number              X              Y              Z
 -------------------------------------------------------------------
      1        6          -0.000291197   -0.000000000    0.000000000
      2        6           0.000291197    0.000000000   -0.000000000
      3        1           0.000062555    0.000218291   -0.000000000
      4        1           0.000062555   -0.000218291    0.000000000
      5        1          -0.000062555   -0.000218291    0.000000000
      6        1          -0.000062555    0.000218291   -0.000000000
 -------------------------------------------------------------------
 Cartesian Forces:  Max     0.000291197 RMS     0.000144501
 Force constants in Cartesian coordinates: 
                1             2             3             4             5 
      1  0.881816D+00
      2  0.000000D+00  0.640855D+00
      3  0.000000D+00  0.000000D+00  0.107420D+00
      4 -0.589875D+00  0.000000D+00  0.000000D+00  0.881816D+00
      5  0.000000D+00 -0.115569D+00  0.000000D+00  0.000000D+00  0.640855D+00
      6  0.000000D+00  0.000000D+00 -0.452012D-01  0.000000D+00  0.000000D+00
      7 -0.132436D+00  0.121504D+00  0.000000D+00 -0.135345D-01  0.301712D-01
      8  0.125167D+00 -0.266779D+00  0.000000D+00 -0.167017D-02  0.413597D-02
      9  0.000000D+00  0.000000D+00 -0.360559D-01  0.000000D+00  0.000000D+00
     10 -0.132436D+00 -0.121504D+00  0.000000D+00 -0.135345D-01 -0.301712D-01
     11 -0.125167D+00 -0.266779D+00  0.000000D+00  0.167017D-02  0.413597D-02
     12  0.000000D+00  0.000000D+00 -0.360559D-01  0.000000D+00  0.000000D+00
     13 -0.135345D-01  0.301712D-01  0.000000D+00 -0.132436D+00  0.121504D+00
     14 -0.167017D-02  0.413597D-02  0.000000D+00  0.125167D+00 -0.266779D+00
     15  0.000000D+00  0.000000D+00  0.494647D-02  0.000000D+00  0.000000D+00
     16 -0.135345D-01 -0.301712D-01  0.000000D+00 -0.132436D+00 -0.121504D+00
     17  0.167017D-02  0.413597D-02  0.000000D+00 -0.125167D+00 -0.266779D+00
     18  0.000000D+00  0.000000D+00  0.494647D-02  0.000000D+00  0.000000D+00
                6             7             8             9            10 
      6  0.107420D+00
      7  0.000000D+00  0.139173D+00
      8  0.000000D+00 -0.136809D+00  0.276807D+00
      9  0.494647D-02  0.000000D+00  0.000000D+00  0.241571D-01
     10  0.000000D+00  0.103556D-01  0.139046D-01  0.000000D+00  0.139173D+00
     11  0.000000D+00 -0.139046D-01 -0.170922D-01  0.000000D+00  0.136809D+00
     12  0.494647D-02  0.000000D+00  0.000000D+00  0.240948D-02  0.000000D+00
     13  0.000000D+00 -0.501751D-02 -0.776202D-03  0.000000D+00  0.145918D-02
     14  0.000000D+00 -0.776202D-03  0.155790D-02  0.000000D+00  0.184630D-03
     15 -0.360559D-01  0.000000D+00  0.000000D+00  0.132052D-01  0.000000D+00
     16  0.000000D+00  0.145918D-02  0.184630D-03  0.000000D+00 -0.501751D-02
     17  0.000000D+00 -0.184630D-03  0.136968D-02  0.000000D+00  0.776202D-03
     18 -0.360559D-01  0.000000D+00  0.000000D+00 -0.866236D-02  0.000000D+00
               11            12            13            14            15 
     11  0.276807D+00
     12  0.000000D+00  0.241571D-01
     13 -0.184630D-03  0.000000D+00  0.139173D+00
     14  0.136968D-02  0.000000D+00 -0.136809D+00  0.276807D+00
     15  0.000000D+00 -0.866236D-02  0.000000D+00  0.000000D+00  0.241571D-01
     16  0.776202D-03  0.000000D+00  0.103556D-01  0.139046D-01  0.000000D+00
     17  0.155790D-02  0.000000D+00 -0.139046D-01 -0.170922D-01  0.000000D+00
     18  0.000000D+00  0.132052D-01  0.000000D+00  0.000000D+00  0.240948D-02
               16            17            18 
     16  0.139173D+00
     17  0.136809D+00  0.276807D+00
     18  0.000000D+00  0.000000D+00  0.241571D-01
 FormGI is forming the generalized inverse of G from B-inverse, IUseBI=4.
 Force constants in internal coordinates: 
                1             2             3             4             5 
      1  0.651129D+00
      2  0.711865D-02  0.361125D+00
      3  0.711865D-02  0.272796D-02  0.361125D+00
      4  0.711865D-02 -0.416350D-03  0.744698D-03  0.361125D+00
      5  0.711865D-02  0.744698D-03 -0.416350D-03  0.272796D-02  0.361125D+00
      6  0.107553D-01  0.437119D-02 -0.115887D-01  0.438855D-02 -0.341551D-02
      7  0.107553D-01 -0.115887D-01  0.437119D-02 -0.341551D-02  0.438855D-02
      8 -0.215106D-01  0.721746D-02  0.721746D-02 -0.973039D-03 -0.973039D-03
      9  0.107553D-01  0.438855D-02 -0.341551D-02  0.437119D-02 -0.115887D-01
     10  0.107553D-01 -0.341551D-02  0.438855D-02 -0.115887D-01  0.437119D-02
     11 -0.215106D-01 -0.973039D-03 -0.973039D-03  0.721746D-02  0.721746D-02
     12  0.000000D+00  0.000000D+00  0.000000D+00  0.000000D+00  0.000000D+00
     13  0.000000D+00  0.000000D+00  0.000000D+00  0.000000D+00  0.000000D+00
     14  0.000000D+00  0.000000D+00  0.000000D+00  0.000000D+00  0.000000D+00
     15  0.000000D+00  0.000000D+00  0.000000D+00  0.000000D+00  0.000000D+00
                6             7             8             9            10 
      6  0.824440D-01
      7 -0.450822D-01  0.824440D-01
      8 -0.373618D-01 -0.373618D-01  0.747236D-01
      9  0.106512D-01 -0.922437D-02 -0.142683D-02  0.824440D-01
     10 -0.922437D-02  0.106512D-01 -0.142683D-02 -0.450822D-01  0.824440D-01
     11 -0.142683D-02 -0.142683D-02  0.285365D-02 -0.373618D-01 -0.373618D-01
     12  0.000000D+00  0.000000D+00  0.000000D+00  0.000000D+00  0.000000D+00
     13  0.000000D+00  0.000000D+00  0.000000D+00  0.000000D+00  0.000000D+00
     14  0.000000D+00  0.000000D+00  0.000000D+00  0.000000D+00  0.000000D+00
     15  0.000000D+00  0.000000D+00  0.000000D+00  0.000000D+00  0.000000D+00
               11            12            13            14            15 
     11  0.747236D-01
     12  0.000000D+00  0.319699D-01
     13  0.000000D+00  0.831419D-02  0.250599D-01
     14  0.000000D+00  0.831419D-02 -0.843149D-02  0.250599D-01
     15  0.000000D+00 -0.153415D-01  0.831419D-02  0.831419D-02  0.319699D-01
 Leave Link  716 at Sat Apr  6 18:27:51 2024, MaxMem=   536870912 cpu:               0.2 elap:               0.1
 (Enter /usr/appli/g16/c01/g16/l103.exe)

 GradGradGradGradGradGradGradGradGradGradGradGradGradGradGradGradGradGrad
 Berny optimization.
 Red2BG is reusing G-inverse.
 Internal  Forces:  Max     0.000230840 RMS     0.000136651
 Search for a local minimum.
 Step number   1 out of a maximum of    2
 All quantities printed in internal units (Hartrees-Bohrs-Radians)
 Second derivative matrix not updated -- analytic derivatives used.
 The second derivative matrix:
                          R1        R2        R3        R4        R5
           R1           0.65113
           R2           0.00712   0.36113
           R3           0.00712   0.00273   0.36113
           R4           0.00712  -0.00042   0.00074   0.36113
           R5           0.00712   0.00074  -0.00042   0.00273   0.36113
           A1           0.01076   0.00437  -0.01159   0.00439  -0.00342
           A2           0.01076  -0.01159   0.00437  -0.00342   0.00439
           A3          -0.02151   0.00722   0.00722  -0.00097  -0.00097
           A4           0.01076   0.00439  -0.00342   0.00437  -0.01159
           A5           0.01076  -0.00342   0.00439  -0.01159   0.00437
           A6          -0.02151  -0.00097  -0.00097   0.00722   0.00722
           D1           0.00000  -0.00000  -0.00000  -0.00000   0.00000
           D2           0.00000  -0.00000  -0.00000   0.00000  -0.00000
           D3          -0.00000   0.00000   0.00000  -0.00000  -0.00000
           D4          -0.00000   0.00000   0.00000   0.00000  -0.00000
                          A1        A2        A3        A4        A5
           A1           0.08244
           A2          -0.04508   0.08244
           A3          -0.03736  -0.03736   0.07472
           A4           0.01065  -0.00922  -0.00143   0.08244
           A5          -0.00922   0.01065  -0.00143  -0.04508   0.08244
           A6          -0.00143  -0.00143   0.00285  -0.03736  -0.03736
           D1          -0.00000  -0.00000   0.00000  -0.00000   0.00000
           D2          -0.00000   0.00000   0.00000   0.00000  -0.00000
           D3           0.00000  -0.00000  -0.00000  -0.00000   0.00000
           D4           0.00000  -0.00000   0.00000   0.00000   0.00000
                          A6        D1        D2        D3        D4
           A6           0.07472
           D1           0.00000   0.03197
           D2          -0.00000   0.00831   0.02506
           D3           0.00000   0.00831  -0.00843   0.02506
           D4          -0.00000  -0.01534   0.00831   0.00831   0.03197
 ITU=  0
     Eigenvalues ---    0.03326   0.03349   0.04731   0.10702   0.10739
     Eigenvalues ---    0.11323   0.14474   0.35982   0.35989   0.36411
     Eigenvalues ---    0.36431   0.65434
 Angle between quadratic step and forces=  27.52 degrees.
 Linear search not attempted -- first point.
 Iteration  1 RMS(Cart)=  0.00101205 RMS(Int)=  0.00000057
 Iteration  2 RMS(Cart)=  0.00000058 RMS(Int)=  0.00000000
 ITry= 1 IFail=0 DXMaxC= 1.40D-03 DCOld= 1.00D+10 DXMaxT= 3.00D-01 DXLimC= 3.00D+00 Rises=F
 ClnCor:  largest displacement from symmetrization is 1.97D-12 for atom     4.
 Variable       Old X    -DE/DX   Delta X   Delta X   Delta X     New X
                                 (Linear)    (Quad)   (Total)
    R1        2.51469   0.00017   0.00000   0.00044   0.00044   2.51513
    R2        2.05468   0.00015   0.00000   0.00036   0.00036   2.05504
    R3        2.05468   0.00015   0.00000   0.00036   0.00036   2.05504
    R4        2.05468   0.00015   0.00000   0.00036   0.00036   2.05504
    R5        2.05468   0.00015   0.00000   0.00036   0.00036   2.05504
    A1        2.12796  -0.00012   0.00000  -0.00101  -0.00101   2.12695
    A2        2.12796  -0.00012   0.00000  -0.00101  -0.00101   2.12695
    A3        2.02727   0.00023   0.00000   0.00203   0.00203   2.02929
    A4        2.12796  -0.00012   0.00000  -0.00101  -0.00101   2.12695
    A5        2.12796  -0.00012   0.00000  -0.00101  -0.00101   2.12695
    A6        2.02727   0.00023   0.00000   0.00203   0.00203   2.02929
    D1        3.14159  -0.00000   0.00000  -0.00000   0.00000   3.14159
    D2        0.00000   0.00000   0.00000   0.00000   0.00000   0.00000
    D3        0.00000  -0.00000   0.00000  -0.00000   0.00000   0.00000
    D4        3.14159   0.00000   0.00000   0.00000   0.00000   3.14159
         Item               Value     Threshold  Converged?
 Maximum Force            0.000231     0.000450     YES
 RMS     Force            0.000137     0.000300     YES
 Maximum Displacement     0.001403     0.001800     YES
 RMS     Displacement     0.001012     0.001200     YES
 Predicted change in Energy=-8.470909D-07
 Optimization completed.
    -- Stationary point found.
                           ----------------------------
                           !   Optimized Parameters   !
                           ! (Angstroms and Degrees)  !
 --------------------------                            --------------------------
 ! Name  Definition              Value          Derivative Info.                !
 --------------------------------------------------------------------------------
 ! R1    R(1,2)                  1.3307         -DE/DX =    0.0002              !
 ! R2    R(1,3)                  1.0873         -DE/DX =    0.0002              !
 ! R3    R(1,4)                  1.0873         -DE/DX =    0.0002              !
 ! R4    R(2,5)                  1.0873         -DE/DX =    0.0002              !
 ! R5    R(2,6)                  1.0873         -DE/DX =    0.0002              !
 ! A1    A(2,1,3)              121.9231         -DE/DX =   -0.0001              !
 ! A2    A(2,1,4)              121.9231         -DE/DX =   -0.0001              !
 ! A3    A(3,1,4)              116.1538         -DE/DX =    0.0002              !
 ! A4    A(1,2,5)              121.9231         -DE/DX =   -0.0001              !
 ! A5    A(1,2,6)              121.9231         -DE/DX =   -0.0001              !
 ! A6    A(5,2,6)              116.1538         -DE/DX =    0.0002              !
 ! D1    D(3,1,2,5)            180.0            -DE/DX =    0.0                 !
 ! D2    D(3,1,2,6)              0.0            -DE/DX =    0.0                 !
 ! D3    D(4,1,2,5)              0.0            -DE/DX =    0.0                 !
 ! D4    D(4,1,2,6)            180.0            -DE/DX =    0.0                 !
 --------------------------------------------------------------------------------
 GradGradGradGradGradGradGradGradGradGradGradGradGradGradGradGradGradGrad

 Leave Link  103 at Sat Apr  6 18:27:51 2024, MaxMem=   536870912 cpu:               0.0 elap:               0.0
 (Enter /usr/appli/g16/c01/g16/l9999.exe)
 Dipole is zero, so no output in dipole orientation.

 ----------------------------------------------------------------------

 Electric dipole moment (input orientation):
 (Debye = 10**-18 statcoulomb cm , SI units = C m)
                  (au)            (Debye)         (10**-30 SI)
   Tot        0.000000D+00      0.000000D+00      0.000000D+00
   x          0.000000D+00      0.000000D+00      0.000000D+00
   y          0.000000D+00      0.000000D+00      0.000000D+00
   z          0.000000D+00      0.000000D+00      0.000000D+00

 Dipole polarizability, Alpha (input orientation).
 (esu units = cm**3 , SI units = C**2 m**2 J**-1)
 Alpha(0;0):
               (au)            (10**-24 esu)      (10**-40 SI)
   iso        0.198965D+02      0.294835D+01      0.328048D+01
   aniso      0.193088D+02      0.286127D+01      0.318359D+01
   xx         0.307885D+02      0.456239D+01      0.507634D+01
   yx         0.000000D+00      0.000000D+00      0.000000D+00
   yy         0.203917D+02      0.302174D+01      0.336214D+01
   zx         0.000000D+00      0.000000D+00      0.000000D+00
   zy         0.000000D+00      0.000000D+00      0.000000D+00
   zz         0.850914D+01      0.126092D+01      0.140297D+01

 ----------------------------------------------------------------------
 Unable to Open any file for archive entry.
 1\1\GINC-FE1\Freq\RB3LYP\Gen\C2H4\MOMA3\06-Apr-2024\0\\#P B3LYP/ChkBas
 is 6D 10F Freq=HPModes Geom=Check Guess=Read\\S0\\0,1\C,-0.6653586206,
 0.,0.\C,0.6653586206,0.,0.\H,-1.2402962167,0.9228469531,0.\H,-1.240296
 2167,-0.9228469531,0.\H,1.2402962167,-0.9228469531,0.\H,1.2402962167,0
 .9228469531,0.\\Version=ES64L-G16RevC.01\State=1-AG\HF=-78.5874578\RMS
 D=2.046e-10\RMSF=1.445e-04\ZeroPoint=0.0512338\Thermal=0.0542763\ETot=
 -78.5331815\HTot=-78.5322373\GTot=-78.5570987\Dipole=0.,0.,0.\DipoleDe
 riv=0.0119865,0.,0.,0.,0.1359521,0.,0.,0.,-0.2708546,0.0119865,0.,0.,0
 .,0.1359521,0.,0.,0.,-0.2708546,-0.0059933,0.0591283,0.,0.0784908,-0.0
 67976,0.,0.,0.,0.1354273,-0.0059933,-0.0591283,0.,-0.0784908,-0.067976
 ,0.,0.,0.,0.1354273,-0.0059933,0.0591283,0.,0.0784908,-0.067976,0.,0.,
 0.,0.1354273,-0.0059933,-0.0591283,0.,-0.0784908,-0.067976,0.,0.,0.,0.
 1354273\Polar=30.7885347,0.,20.3916907,0.,0.,8.5091377\Quadrupole=0.78
 70345,0.6865722,-1.4736067,0.,0.,0.\PG=D02H [C2"(C1.C1),SG(H4)]\NImag=
 0\\0.88181604,0.,0.64085470,0.,0.,0.10742011,-0.58987454,0.,0.,0.88181
 604,0.,-0.11556947,0.,0.,0.64085470,0.,0.,-0.04520115,0.,0.,0.10742011
 ,-0.13243629,0.12150360,0.,-0.01353446,0.03017120,0.,0.13917343,0.1251
 6659,-0.26677858,0.,-0.00167017,0.00413597,0.,-0.13680941,0.27680726,0
 .,0.,-0.03605595,0.,0.,0.00494647,0.,0.,0.02415712,-0.13243629,-0.1215
 0360,0.,-0.01353446,-0.03017120,0.,0.01035564,0.01390456,0.,0.13917343
 ,-0.12516659,-0.26677858,0.,0.00167017,0.00413597,0.,-0.01390456,-0.01
 709222,0.,0.13680941,0.27680726,0.,0.,-0.03605595,0.,0.,0.00494647,0.,
 0.,0.00240948,0.,0.,0.02415712,-0.01353446,0.03017120,0.,-0.13243629,0
 .12150360,0.,-0.00501751,-0.00077620,0.,0.00145918,-0.00018463,0.,0.13
 917343,-0.00167017,0.00413597,0.,0.12516659,-0.26677858,0.,-0.00077620
 ,0.00155790,0.,0.00018463,0.00136968,0.,-0.13680941,0.27680726,0.,0.,0
 .00494647,0.,0.,-0.03605595,0.,0.,0.01320524,0.,0.,-0.00866236,0.,0.,0
 .02415712,-0.01353446,-0.03017120,0.,-0.13243629,-0.12150360,0.,0.0014
 5918,0.00018463,0.,-0.00501751,0.00077620,0.,0.01035564,0.01390456,0.,
 0.13917343,0.00167017,0.00413597,0.,-0.12516659,-0.26677858,0.,-0.0001
 8463,0.00136968,0.,0.00077620,0.00155790,0.,-0.01390456,-0.01709222,0.
 ,0.13680941,0.27680726,0.,0.,0.00494647,0.,0.,-0.03605595,0.,0.,-0.008
 66236,0.,0.,0.01320524,0.,0.,0.00240948,0.,0.,0.02415712\\0.00029120,0
 .,0.,-0.00029120,0.,0.,-0.00006256,-0.00021829,0.,-0.00006256,0.000218
 29,0.,0.00006256,0.00021829,0.,0.00006256,-0.00021829,0.\\\@
 The archive entry for this job was punched.


 TELEVISION IS CALLED A MEDIUM BECAUSE IT ISN'T
 RARE, AND IT ISN'T WELL DONE.
 Job cpu time:       0 days  0 hours  0 minutes  6.8 seconds.
 Elapsed time:       0 days  0 hours  0 minutes  2.0 seconds.
 File lengths (MBytes):  RWF=      6 Int=      0 D2E=      0 Chk=      1 Scr=      1
 Normal termination of Gaussian 16 at Sat Apr  6 18:27:51 2024.
