S0                                                                      
SP        RB3LYP TD-FC                                                Gen                 
Number of atoms                            I                6
Info1-9                                    I   N=           9
          12          12           0           0           0         111
           1         218        -501
Full Title                                 C   N=           1
S0          
Route                                      C   N=           7
#P B3LYP/ChkBasis TD(50-50, Nstates=5) 6D 10F Geom=Check Gue
ss=Read IOP(9/40=4)     
Charge                                     I                0
Multiplicity                               I                1
Number of electrons                        I               16
Number of alpha electrons                  I                8
Number of beta electrons                   I                8
Number of basis functions                  I               38
Number of independent functions            I               38
Number of point charges in /Mol/           I                0
Number of translation vectors              I                0
Atomic numbers                             I   N=           6
           6           6           1           1           1           1
Nuclear charges                            R   N=           6
  6.00000000E+00  6.00000000E+00  1.00000000E+00  1.00000000E+00  1.00000000E+00
  1.00000000E+00
Current cartesian coordinates              R   N=          18
  0.00000000E+00  0.00000000E+00  1.25734557E+00  1.53980422E-16  0.00000000E+00
 -1.25734557E+00  9.86076132E-32  1.74392800E+00  2.34382016E+00 -2.13569584E-16
 -1.74392800E+00  2.34382016E+00 -2.13569584E-16 -1.74392800E+00 -2.34382016E+00
  2.87035186E-16  1.74392800E+00 -2.34382016E+00
Number of symbols in /Mol/                 I                0
Int Atom Types                             I   N=           6
           0           0           0           0           0           0
Force Field                                I                0
Atom Types                                 C   N=           6
                                                            
            
MM charges                                 R   N=           6
  0.00000000E+00  0.00000000E+00  0.00000000E+00  0.00000000E+00  0.00000000E+00
  0.00000000E+00
Integer atomic weights                     I   N=           6
          12          12           1           1           1           1
Real atomic weights                        R   N=           6
  1.20000000E+01  1.20000000E+01  1.00782504E+00  1.00782504E+00  1.00782504E+00
  1.00782504E+00
Atom fragment info                         I   N=           6
           0           0           0           0           0           0
Atom residue num                           I   N=           6
           0           0           0           0           0           0
Nuclear spins                              I   N=           6
           0           0           1           1           1           1
Nuclear ZEff                               R   N=           6
 -3.60000000E+00 -3.60000000E+00 -1.00000000E+00 -1.00000000E+00 -1.00000000E+00
 -1.00000000E+00
Nuclear ZNuc                               R   N=           6
  6.00000000E+00  6.00000000E+00  1.00000000E+00  1.00000000E+00  1.00000000E+00
  1.00000000E+00
Nuclear QMom                               R   N=           6
  0.00000000E+00  0.00000000E+00  0.00000000E+00  0.00000000E+00  0.00000000E+00
  0.00000000E+00
Nuclear GFac                               R   N=           6
  0.00000000E+00  0.00000000E+00  2.79284600E+00  2.79284600E+00  2.79284600E+00
  2.79284600E+00
MicOpt                                     I   N=           6
          -1          -1          -1          -1          -1          -1
Number of residues                         I                0
Number of secondary structures             I                0
Redundant internal dimensions              I   N=           4
          15           5           6           4
Redundant internal coordinate indices      I   N=          60
           1           2           0           0           1           3
           0           0           1           4           0           0
           2           5           0           0           2           6
           0           0           2           1           3           0
           2           1           4           0           3           1
           4           0           1           2           5           0
           1           2           6           0           5           2
           6           0           3           1           2           5
           3           1           2           6           4           1
           2           5           4           1           2           6
Redundant internal coordinates             R   N=          15
  2.51469114E+00  2.05468049E+00  2.05468049E+00  2.05468049E+00  2.05468049E+00
  2.12795923E+00  2.12795923E+00  2.02726686E+00  2.12795923E+00  2.12795923E+00
  2.02726686E+00  3.14159265E+00 -0.00000000E+00  0.00000000E+00  3.14159265E+00
ZRed-IntVec                                I   N=          15
           0           0           0           0           0           0
           0           0           0           0           0           0
           0           0           0
ZRed-FPVec                                 R   N=          15
  0.00000000E+00  0.00000000E+00  0.00000000E+00  0.00000000E+00  0.00000000E+00
  0.00000000E+00  0.00000000E+00  0.00000000E+00  0.00000000E+00  0.00000000E+00
  0.00000000E+00  0.00000000E+00  0.00000000E+00  0.00000000E+00  0.00000000E+00
ZRed-Constraint1                           R   N=          15
  2.51469114E+00  2.05468049E+00  2.05468049E+00  2.05468049E+00  2.05468049E+00
  2.12795923E+00  2.12795923E+00  2.02726686E+00  2.12795923E+00  2.12795923E+00
  2.02726686E+00  3.14159265E+00  0.00000000E+00  0.00000000E+00  3.14159265E+00
ZRed-Constraint2                           R   N=          15
  2.51469114E+00  2.05468049E+00  2.05468049E+00  2.05468049E+00  2.05468049E+00
  2.12795923E+00  2.12795923E+00  2.02726686E+00  2.12795923E+00  2.12795923E+00
  2.02726686E+00  3.14159265E+00  0.00000000E+00  0.00000000E+00  3.14159265E+00
SymInf integers                            I   N=          26
           4           8           1           1           1          -1
          -1           1          -1           1          -1           1
          -1          -1          -1           1           1           1
          -1           1           1           1          -1          -1
          -1          -1
RotTr to input orientation                 R   N=          12
 -1.83697020E-16 -1.23380738E-31  1.00000000E+00 -6.71653455E-16  1.00000000E+00
  0.00000000E+00 -1.00000000E+00 -6.71653455E-16 -1.83697020E-16 -5.55111512E-17
  4.16333634E-17  2.44984836E-16
Number of contracted shells                I               16
Number of primitive shells                 I               38
Pure/Cartesian d shells                    I                1
Pure/Cartesian f shells                    I                1
Highest angular momentum                   I                2
Largest degree of contraction              I                6
Shell types                                I   N=          16
           0          -1          -1           2           0          -1
          -1           2           0           0           0           0
           0           0           0           0
Number of primitives per shell             I   N=          16
           6           3           1           1           6           3
           1           1           3           1           3           1
           3           1           3           1
Shell to atom map                          I   N=          16
           1           1           1           1           2           2
           2           2           3           3           4           4
           5           5           6           6
Primitive exponents                        R   N=          38
  3.04752488E+03  4.57369518E+02  1.03948685E+02  2.92101553E+01  9.28666296E+00
  3.16392696E+00  7.86827235E+00  1.88128854E+00  5.44249258E-01  1.68714478E-01
  8.00000000E-01  3.04752488E+03  4.57369518E+02  1.03948685E+02  2.92101553E+01
  9.28666296E+00  3.16392696E+00  7.86827235E+00  1.88128854E+00  5.44249258E-01
  1.68714478E-01  8.00000000E-01  1.87311370E+01  2.82539436E+00  6.40121692E-01
  1.61277759E-01  1.87311370E+01  2.82539436E+00  6.40121692E-01  1.61277759E-01
  1.87311370E+01  2.82539436E+00  6.40121692E-01  1.61277759E-01  1.87311370E+01
  2.82539436E+00  6.40121692E-01  1.61277759E-01
Contraction coefficients                   R   N=          38
  1.83473713E-03  1.40373228E-02  6.88426223E-02  2.32184443E-01  4.67941348E-01
  3.62311985E-01 -1.19332420E-01 -1.60854152E-01  1.14345644E+00  1.00000000E+00
  1.00000000E+00  1.83473713E-03  1.40373228E-02  6.88426223E-02  2.32184443E-01
  4.67941348E-01  3.62311985E-01 -1.19332420E-01 -1.60854152E-01  1.14345644E+00
  1.00000000E+00  1.00000000E+00  3.34946043E-02  2.34726953E-01  8.13757326E-01
  1.00000000E+00  3.34946043E-02  2.34726953E-01  8.13757326E-01  1.00000000E+00
  3.34946043E-02  2.34726953E-01  8.13757326E-01  1.00000000E+00  3.34946043E-02
  2.34726953E-01  8.13757326E-01  1.00000000E+00
P(S=P) Contraction coefficients            R   N=          38
  0.00000000E+00  0.00000000E+00  0.00000000E+00  0.00000000E+00  0.00000000E+00
  0.00000000E+00  6.89990666E-02  3.16423961E-01  7.44308291E-01  1.00000000E+00
  0.00000000E+00  0.00000000E+00  0.00000000E+00  0.00000000E+00  0.00000000E+00
  0.00000000E+00  0.00000000E+00  6.89990666E-02  3.16423961E-01  7.44308291E-01
  1.00000000E+00  0.00000000E+00  0.00000000E+00  0.00000000E+00  0.00000000E+00
  0.00000000E+00  0.00000000E+00  0.00000000E+00  0.00000000E+00  0.00000000E+00
  0.00000000E+00  0.00000000E+00  0.00000000E+00  0.00000000E+00  0.00000000E+00
  0.00000000E+00  0.00000000E+00  0.00000000E+00
Coordinates of each shell                  R   N=          48
  0.00000000E+00  0.00000000E+00  1.25734557E+00  0.00000000E+00  0.00000000E+00
  1.25734557E+00  0.00000000E+00  0.00000000E+00  1.25734557E+00  0.00000000E+00
  0.00000000E+00  1.25734557E+00  1.53980422E-16  0.00000000E+00 -1.25734557E+00
  1.53980422E-16  0.00000000E+00 -1.25734557E+00  1.53980422E-16  0.00000000E+00
 -1.25734557E+00  1.53980422E-16  0.00000000E+00 -1.25734557E+00  4.93038066E-32
  1.74392800E+00  2.34382016E+00  4.93038066E-32  1.74392800E+00  2.34382016E+00
 -2.13569584E-16 -1.74392800E+00  2.34382016E+00 -2.13569584E-16 -1.74392800E+00
  2.34382016E+00 -2.13569584E-16 -1.74392800E+00 -2.34382016E+00 -2.13569584E-16
 -1.74392800E+00 -2.34382016E+00  2.87035186E-16  1.74392800E+00 -2.34382016E+00
  2.87035186E-16  1.74392800E+00 -2.34382016E+00
Num ILSW                                   I              100
ILSW                                       I   N=         100
           0           1           0           0           2           0
           0           0           0           0         402          -1
           5           0           0           1           0           0
           0           0           0           0           0           0
           1           0           0           0           0           0
           0           0      100000           0          -1           0
           0           0           0           0           0           0
           0           0           0           1           0           0
           0 -2000000000           1           0           0           0
           0           0           4          52           0           0
           0           0           5           0           0           0
           0           0           0           6           0           1
           0           0           0           0           0           0
           0           0           0           0           0           0
           0           0           0           0           0           0
           0           0           0           0           0           0
           0           0           0           0
Num RLSW                                   I               52
RLSW                                       R   N=          52
  8.00000000E-01  7.20000000E-01  1.00000000E+00  8.10000000E-01  2.00000000E-01
  0.00000000E+00  0.00000000E+00  1.00000000E+00  0.00000000E+00  0.00000000E+00
  0.00000000E+00  0.00000000E+00  1.00000000E+00  0.00000000E+00  0.00000000E+00
  0.00000000E+00  0.00000000E+00  1.00000000E+00  0.00000000E+00  0.00000000E+00
  0.00000000E+00  0.00000000E+00  1.00000000E+00  0.00000000E+00  0.00000000E+00
  0.00000000E+00  0.00000000E+00  1.00000000E+00  0.00000000E+00  0.00000000E+00
  0.00000000E+00  0.00000000E+00  1.00000000E+00  0.00000000E+00  0.00000000E+00
  0.00000000E+00  0.00000000E+00  0.00000000E+00  1.00000000E+00  1.00000000E+00
  0.00000000E+00  1.00000000E+00  0.00000000E+00  0.00000000E+00  0.00000000E+00
  0.00000000E+00  0.00000000E+00  0.00000000E+00  0.00000000E+00  0.00000000E+00
  0.00000000E+00  0.00000000E+00
MxBond                                     I                3
NBond                                      I   N=           6
           3           3           1           1           1           1
IBond                                      I   N=          18
           2           3           4           1           5           6
           1           0           0           1           0           0
           2           0           0           2           0           0
RBond                                      R   N=          18
  2.00000000E+00  1.00000000E+00  1.00000000E+00  2.00000000E+00  1.00000000E+00
  1.00000000E+00  1.00000000E+00  0.00000000E+00  0.00000000E+00  1.00000000E+00
  0.00000000E+00  0.00000000E+00  1.00000000E+00  0.00000000E+00  0.00000000E+00
  1.00000000E+00  0.00000000E+00  0.00000000E+00
Virial Ratio                               R      2.010491158456417E+00
SCF Energy                                 R     -7.858745783980656E+01
CIS Energy                                 R     -7.843674067663549E+01
Total Energy                               R     -7.843674067663549E+01
Post-SCF wavefunction norm                 R      1.000000000000000E+00
RMS Density                                R      1.483962160294260E-10
Job Status                                 I                1
Nuclear derivative order                   I                0
External E-field                           R   N=          35
  0.00000000E+00  0.00000000E+00  0.00000000E+00  0.00000000E+00  0.00000000E+00
  0.00000000E+00  0.00000000E+00  0.00000000E+00  0.00000000E+00  0.00000000E+00
  0.00000000E+00  0.00000000E+00  0.00000000E+00  0.00000000E+00  0.00000000E+00
  0.00000000E+00  0.00000000E+00  0.00000000E+00  0.00000000E+00  0.00000000E+00
  0.00000000E+00  0.00000000E+00  0.00000000E+00  0.00000000E+00  0.00000000E+00
  0.00000000E+00  0.00000000E+00  0.00000000E+00  0.00000000E+00  0.00000000E+00
  0.00000000E+00  0.00000000E+00  0.00000000E+00  0.00000000E+00  0.00000000E+00
IOpCl                                      I                0
IROHF                                      I                0
Alpha Orbital Energies                     R   N=          38
 -1.01842394E+01 -1.01833451E+01 -7.54781122E-01 -5.77502015E-01 -4.64542000E-01
 -4.16691613E-01 -3.53103057E-01 -2.66670983E-01  1.88097484E-02  1.22565537E-01
  1.40236998E-01  1.57558463E-01  2.44120071E-01  3.32625794E-01  4.80358056E-01
  5.48431659E-01  5.68124562E-01  6.37284249E-01  6.55463528E-01  6.99052076E-01
  8.47528199E-01  8.72286573E-01  9.32103971E-01  9.41478850E-01  1.10575784E+00
  1.21452354E+00  1.46272612E+00  1.54513989E+00  1.83301064E+00  1.89013965E+00
  1.98849532E+00  2.08810025E+00  2.28492128E+00  2.38637891E+00  2.70330049E+00
  2.70551456E+00  4.09705539E+00  4.24637818E+00
Alpha MO coefficients                      R   N=        1444
  7.01780765E-01  3.43960982E-02  0.00000000E+00  0.00000000E+00  3.00076160E-04
 -6.02868384E-03  0.00000000E+00  0.00000000E+00 -7.18459695E-04 -7.00855388E-03
 -6.83368332E-03 -6.69162833E-03  0.00000000E+00  0.00000000E+00  0.00000000E+00
  7.01780765E-01  3.43960982E-02  0.00000000E+00  0.00000000E+00 -3.00076160E-04
 -6.02868384E-03  0.00000000E+00  0.00000000E+00  7.18459695E-04 -7.00855388E-03
 -6.83368332E-03 -6.69162833E-03  0.00000000E+00  0.00000000E+00  0.00000000E+00
 -2.92529909E-04  1.56289976E-03 -2.92529909E-04  1.56289976E-03 -2.92529909E-04
  1.56289976E-03 -2.92529909E-04  1.56289976E-03  7.02131699E-01  3.51879024E-02
  0.00000000E+00  0.00000000E+00 -3.13867414E-04 -1.24255101E-02  0.00000000E+00
  0.00000000E+00  2.01769480E-03 -6.82392485E-03 -6.55560644E-03 -6.27840982E-03
  0.00000000E+00  0.00000000E+00  0.00000000E+00 -7.02131699E-01 -3.51879024E-02
  0.00000000E+00  0.00000000E+00 -3.13867414E-04  1.24255101E-02  0.00000000E+00
  0.00000000E+00  2.01769480E-03  6.82392485E-03  6.55560644E-03  6.27840982E-03
  0.00000000E+00  0.00000000E+00  0.00000000E+00 -1.84885914E-04  1.54663401E-03
 -1.84885914E-04  1.54663401E-03  1.84885914E-04 -1.54663401E-03  1.84885914E-04
 -1.54663401E-03 -1.60426940E-01  3.10101320E-01  0.00000000E+00  0.00000000E+00
 -1.00062537E-01  2.32829487E-01  0.00000000E+00  0.00000000E+00 -4.28459505E-03
 -1.67278864E-02 -1.59587049E-04  8.00585313E-03  0.00000000E+00  0.00000000E+00
  0.00000000E+00 -1.60426940E-01  3.10101320E-01  0.00000000E+00  0.00000000E+00
  1.00062537E-01  2.32829487E-01  0.00000000E+00  0.00000000E+00  4.28459505E-03
 -1.67278864E-02 -1.59587049E-04  8.00585313E-03  0.00000000E+00  0.00000000E+00
  0.00000000E+00  8.43597860E-02  1.78074832E-02  8.43597860E-02  1.78074832E-02
  8.43597860E-02  1.78074832E-02  8.43597860E-02  1.78074832E-02 -1.23067085E-01
  2.47417178E-01  0.00000000E+00  0.00000000E+00  1.72131268E-01  2.30710463E-01
  0.00000000E+00  0.00000000E+00  6.99043372E-02 -1.13447889E-02  1.34546859E-02
 -8.10854206E-03  0.00000000E+00  0.00000000E+00  0.00000000E+00  1.23067085E-01
 -2.47417178E-01  0.00000000E+00  0.00000000E+00  1.72131268E-01 -2.30710463E-01
  0.00000000E+00  0.00000000E+00  6.99043372E-02  1.13447889E-02 -1.34546859E-02
  8.10854206E-03  0.00000000E+00  0.00000000E+00  0.00000000E+00  1.45915839E-01
  6.58220327E-02  1.45915839E-01  6.58220327E-02 -1.45915839E-01 -6.58220327E-02
 -1.45915839E-01 -6.58220327E-02  0.00000000E+00  0.00000000E+00  0.00000000E+00
  3.31127820E-01  0.00000000E+00  0.00000000E+00  0.00000000E+00  1.21072365E-01
  0.00000000E+00  0.00000000E+00  0.00000000E+00  0.00000000E+00  0.00000000E+00
  0.00000000E+00  6.12140517E-03  0.00000000E+00  0.00000000E+00  0.00000000E+00
  3.31127820E-01  0.00000000E+00  0.00000000E+00  0.00000000E+00  1.21072365E-01
  0.00000000E+00  0.00000000E+00  0.00000000E+00  0.00000000E+00  0.00000000E+00
  0.00000000E+00 -6.12140517E-03  1.55257292E-01  1.12041664E-01 -1.55257292E-01
 -1.12041664E-01 -1.55257292E-01 -1.12041664E-01  1.55257292E-01  1.12041664E-01
  1.47094349E-02 -3.27014219E-02  0.00000000E+00  0.00000000E+00  4.14116679E-01
 -3.31413645E-03  0.00000000E+00  0.00000000E+00  1.41414091E-01  4.92297446E-04
  1.90323690E-02 -5.40510565E-03  0.00000000E+00  0.00000000E+00  0.00000000E+00
  1.47094349E-02 -3.27014219E-02  0.00000000E+00  0.00000000E+00 -4.14116679E-01
 -3.31413645E-03  0.00000000E+00  0.00000000E+00 -1.41414091E-01  4.92297446E-04
  1.90323690E-02 -5.40510565E-03  0.00000000E+00  0.00000000E+00  0.00000000E+00
  1.24883868E-01  1.08093925E-01  1.24883868E-01  1.08093925E-01  1.24883868E-01
  1.08093925E-01  1.24883868E-01  1.08093925E-01  0.00000000E+00  0.00000000E+00
  0.00000000E+00  3.09507617E-01  0.00000000E+00  0.00000000E+00  0.00000000E+00
  1.16817152E-01  0.00000000E+00  0.00000000E+00  0.00000000E+00  0.00000000E+00
  0.00000000E+00  0.00000000E+00  3.06109534E-02  0.00000000E+00  0.00000000E+00
  0.00000000E+00 -3.09507617E-01  0.00000000E+00  0.00000000E+00  0.00000000E+00
 -1.16817152E-01  0.00000000E+00  0.00000000E+00  0.00000000E+00  0.00000000E+00
  0.00000000E+00  0.00000000E+00  3.06109534E-02  1.97281936E-01  1.97026102E-01
 -1.97281936E-01 -1.97026102E-01  1.97281936E-01  1.97026102E-01 -1.97281936E-01
 -1.97026102E-01  0.00000000E+00  0.00000000E+00  4.01462956E-01  0.00000000E+00
  0.00000000E+00  0.00000000E+00  2.84495382E-01  0.00000000E+00  0.00000000E+00
  0.00000000E+00  0.00000000E+00  0.00000000E+00  0.00000000E+00 -1.61074764E-02
  0.00000000E+00  0.00000000E+00  0.00000000E+00  4.01462956E-01  0.00000000E+00
  0.00000000E+00  0.00000000E+00  2.84495382E-01  0.00000000E+00  0.00000000E+00
  0.00000000E+00  0.00000000E+00  0.00000000E+00  0.00000000E+00  1.61074764E-02
  0.00000000E+00  0.00000000E+00  0.00000000E+00  0.00000000E+00  0.00000000E+00
  0.00000000E+00  0.00000000E+00  0.00000000E+00  0.00000000E+00  0.00000000E+00
  0.00000000E+00  4.18952028E-01  0.00000000E+00  0.00000000E+00  0.00000000E+00
  6.32260409E-01  0.00000000E+00  0.00000000E+00  0.00000000E+00  0.00000000E+00
  0.00000000E+00  0.00000000E+00  2.50867454E-02  0.00000000E+00  0.00000000E+00
  0.00000000E+00 -4.18952028E-01  0.00000000E+00  0.00000000E+00  0.00000000E+00
 -6.32260409E-01  0.00000000E+00  0.00000000E+00  0.00000000E+00  0.00000000E+00
  0.00000000E+00  0.00000000E+00  2.50867454E-02  0.00000000E+00  0.00000000E+00
  0.00000000E+00  0.00000000E+00  0.00000000E+00  0.00000000E+00  0.00000000E+00
  0.00000000E+00  0.00000000E+00 -8.17301681E-02  1.26972047E-01  0.00000000E+00
  0.00000000E+00  1.83498250E-01  1.38215827E+00  0.00000000E+00  0.00000000E+00
  5.92422214E-01 -3.51580971E-03 -1.38464180E-02  4.43175373E-03  0.00000000E+00
  0.00000000E+00  0.00000000E+00 -8.17301681E-02  1.26972047E-01  0.00000000E+00
  0.00000000E+00 -1.83498250E-01  1.38215827E+00  0.00000000E+00  0.00000000E+00
 -5.92422214E-01 -3.51580971E-03 -1.38464180E-02  4.43175373E-03  0.00000000E+00
  0.00000000E+00  0.00000000E+00 -4.01706588E-02 -9.78074004E-01 -4.01706588E-02
 -9.78074004E-01 -4.01706588E-02 -9.78074004E-01 -4.01706588E-02 -9.78074004E-01
  0.00000000E+00  0.00000000E+00  0.00000000E+00 -3.04583391E-01  0.00000000E+00
  0.00000000E+00  0.00000000E+00 -7.09033962E-01  0.00000000E+00  0.00000000E+00
  0.00000000E+00  0.00000000E+00  0.00000000E+00  0.00000000E+00  2.64190623E-02
  0.00000000E+00  0.00000000E+00  0.00000000E+00 -3.04583391E-01  0.00000000E+00
  0.00000000E+00  0.00000000E+00 -7.09033962E-01  0.00000000E+00  0.00000000E+00
  0.00000000E+00  0.00000000E+00  0.00000000E+00  0.00000000E+00 -2.64190623E-02
  7.72101481E-02  9.98924488E-01 -7.72101481E-02 -9.98924488E-01 -7.72101481E-02
 -9.98924488E-01  7.72101481E-02  9.98924488E-01 -1.14306626E-01  1.60845970E-01
  0.00000000E+00  0.00000000E+00  1.16220567E-01  1.82873947E+00  0.00000000E+00
  0.00000000E+00  1.04717173E-01 -9.59802045E-03 -1.81403256E-03 -9.09014996E-03
  0.00000000E+00  0.00000000E+00  0.00000000E+00  1.14306626E-01 -1.60845970E-01
  0.00000000E+00  0.00000000E+00  1.16220567E-01 -1.82873947E+00  0.00000000E+00
  0.00000000E+00  1.04717173E-01  9.59802045E-03  1.81403256E-03  9.09014996E-03
  0.00000000E+00  0.00000000E+00  0.00000000E+00 -5.22176521E-02 -9.97350495E-01
 -5.22176521E-02 -9.97350495E-01  5.22176521E-02  9.97350495E-01  5.22176521E-02
  9.97350495E-01  0.00000000E+00  0.00000000E+00  0.00000000E+00  3.28757982E-01
  0.00000000E+00  0.00000000E+00  0.00000000E+00  1.65540797E+00  0.00000000E+00
  0.00000000E+00  0.00000000E+00  0.00000000E+00  0.00000000E+00  0.00000000E+00
  1.89869038E-02  0.00000000E+00  0.00000000E+00  0.00000000E+00 -3.28757982E-01
  0.00000000E+00  0.00000000E+00  0.00000000E+00 -1.65540797E+00  0.00000000E+00
  0.00000000E+00  0.00000000E+00  0.00000000E+00  0.00000000E+00  0.00000000E+00
  1.89869038E-02  1.83780580E-02 -1.48194024E+00 -1.83780580E-02  1.48194024E+00
  1.83780580E-02 -1.48194024E+00 -1.83780580E-02  1.48194024E+00 -7.12972907E-02
  3.33238405E-02  0.00000000E+00  0.00000000E+00 -1.98826155E-01  2.97082665E+00
  0.00000000E+00  0.00000000E+00 -2.84980467E+00 -1.01032139E-02  2.58754257E-02
 -1.97327535E-02  0.00000000E+00  0.00000000E+00  0.00000000E+00  7.12972907E-02
 -3.33238405E-02  0.00000000E+00  0.00000000E+00 -1.98826155E-01 -2.97082665E+00
  0.00000000E+00  0.00000000E+00 -2.84980467E+00  1.01032139E-02 -2.58754257E-02
  1.97327535E-02  0.00000000E+00  0.00000000E+00  0.00000000E+00  8.33840160E-02
  5.53926134E-01  8.33840160E-02  5.53926134E-01 -8.33840160E-02 -5.53926134E-01
 -8.33840160E-02 -5.53926134E-01  2.03349666E-02  1.91699904E-01  0.00000000E+00
  0.00000000E+00 -5.60848057E-01  2.87262042E-01  0.00000000E+00  0.00000000E+00
  1.06354506E+00 -3.78910066E-03 -3.71202341E-02  7.70024791E-02  0.00000000E+00
  0.00000000E+00  0.00000000E+00  2.03349666E-02  1.91699904E-01  0.00000000E+00
  0.00000000E+00  5.60848057E-01  2.87262042E-01  0.00000000E+00  0.00000000E+00
 -1.06354506E+00 -3.78910066E-03 -3.71202341E-02  7.70024791E-02  0.00000000E+00
  0.00000000E+00  0.00000000E+00 -6.75345727E-02 -1.27244079E-01 -6.75345727E-02
 -1.27244079E-01 -6.75345727E-02 -1.27244079E-01 -6.75345727E-02 -1.27244079E-01
  0.00000000E+00  0.00000000E+00  7.29824410E-01  0.00000000E+00  0.00000000E+00
  0.00000000E+00 -6.50023193E-01  0.00000000E+00  0.00000000E+00  0.00000000E+00
  0.00000000E+00  0.00000000E+00  0.00000000E+00 -5.57519577E-02  0.00000000E+00
  0.00000000E+00  0.00000000E+00  7.29824410E-01  0.00000000E+00  0.00000000E+00
  0.00000000E+00 -6.50023193E-01  0.00000000E+00  0.00000000E+00  0.00000000E+00
  0.00000000E+00  0.00000000E+00  0.00000000E+00  5.57519577E-02  0.00000000E+00
  0.00000000E+00  0.00000000E+00  0.00000000E+00  0.00000000E+00  0.00000000E+00
  0.00000000E+00  0.00000000E+00  0.00000000E+00  0.00000000E+00  0.00000000E+00
  0.00000000E+00 -4.07239907E-01  0.00000000E+00  0.00000000E+00  0.00000000E+00
  7.70416576E-01  0.00000000E+00  0.00000000E+00  0.00000000E+00  0.00000000E+00
  0.00000000E+00  0.00000000E+00 -9.49135860E-02  0.00000000E+00  0.00000000E+00
  0.00000000E+00 -4.07239907E-01  0.00000000E+00  0.00000000E+00  0.00000000E+00
  7.70416576E-01  0.00000000E+00  0.00000000E+00  0.00000000E+00  0.00000000E+00
  0.00000000E+00  0.00000000E+00  9.49135860E-02 -3.84087497E-01 -6.37097202E-02
  3.84087497E-01  6.37097202E-02  3.84087497E-01  6.37097202E-02 -3.84087497E-01
 -6.37097202E-02  0.00000000E+00  0.00000000E+00 -7.84181348E-01  0.00000000E+00
  0.00000000E+00  0.00000000E+00  1.13947445E+00  0.00000000E+00  0.00000000E+00
  0.00000000E+00  0.00000000E+00  0.00000000E+00  0.00000000E+00 -1.98765840E-02
  0.00000000E+00  0.00000000E+00  0.00000000E+00  7.84181348E-01  0.00000000E+00
  0.00000000E+00  0.00000000E+00 -1.13947445E+00  0.00000000E+00  0.00000000E+00
  0.00000000E+00  0.00000000E+00  0.00000000E+00  0.00000000E+00 -1.98765840E-02
  0.00000000E+00  0.00000000E+00  0.00000000E+00  0.00000000E+00  0.00000000E+00
  0.00000000E+00  0.00000000E+00  0.00000000E+00  0.00000000E+00 -3.78876516E-02
 -7.09219360E-01  0.00000000E+00  0.00000000E+00  3.13291596E-02  1.35529822E+00
  0.00000000E+00  0.00000000E+00  3.42364849E-01  5.80928857E-02 -1.49115788E-01
 -7.71579363E-02  0.00000000E+00  0.00000000E+00  0.00000000E+00 -3.78876516E-02
 -7.09219360E-01  0.00000000E+00  0.00000000E+00 -3.13291596E-02  1.35529822E+00
  0.00000000E+00  0.00000000E+00 -3.42364849E-01  5.80928857E-02 -1.49115788E-01
 -7.71579363E-02  0.00000000E+00  0.00000000E+00  0.00000000E+00 -4.27602399E-01
 -1.62386954E-01 -4.27602399E-01 -1.62386954E-01 -4.27602399E-01 -1.62386954E-01
 -4.27602399E-01 -1.62386954E-01 -8.79544916E-02  3.53954181E-02  0.00000000E+00
  0.00000000E+00 -6.36024848E-01  4.17130563E-01  0.00000000E+00  0.00000000E+00
  7.40164255E-01  8.91843586E-02 -4.29302040E-02 -1.62523039E-01  0.00000000E+00
  0.00000000E+00  0.00000000E+00  8.79544916E-02 -3.53954181E-02  0.00000000E+00
  0.00000000E+00 -6.36024848E-01 -4.17130563E-01  0.00000000E+00  0.00000000E+00
  7.40164255E-01 -8.91843586E-02  4.29302040E-02  1.62523039E-01  0.00000000E+00
  0.00000000E+00  0.00000000E+00 -3.63244572E-01 -1.02634219E-01 -3.63244572E-01
 -1.02634219E-01  3.63244572E-01  1.02634219E-01  3.63244572E-01  1.02634219E-01
  0.00000000E+00  0.00000000E+00  0.00000000E+00 -6.64074280E-01  0.00000000E+00
  0.00000000E+00  0.00000000E+00  1.13810707E+00  0.00000000E+00  0.00000000E+00
  0.00000000E+00  0.00000000E+00  0.00000000E+00  0.00000000E+00  1.68337181E-01
  0.00000000E+00  0.00000000E+00  0.00000000E+00 -6.64074280E-01  0.00000000E+00
  0.00000000E+00  0.00000000E+00  1.13810707E+00  0.00000000E+00  0.00000000E+00
  0.00000000E+00  0.00000000E+00  0.00000000E+00  0.00000000E+00 -1.68337181E-01
  3.94151050E-01 -1.12906259E+00 -3.94151050E-01  1.12906259E+00 -3.94151050E-01
  1.12906259E+00  3.94151050E-01 -1.12906259E+00  0.00000000E+00  0.00000000E+00
  0.00000000E+00 -8.82378406E-01  0.00000000E+00  0.00000000E+00  0.00000000E+00
  2.67902442E+00  0.00000000E+00  0.00000000E+00  0.00000000E+00  0.00000000E+00
  0.00000000E+00  0.00000000E+00  1.33995034E-02  0.00000000E+00  0.00000000E+00
  0.00000000E+00  8.82378406E-01  0.00000000E+00  0.00000000E+00  0.00000000E+00
 -2.67902442E+00  0.00000000E+00  0.00000000E+00  0.00000000E+00  0.00000000E+00
  0.00000000E+00  0.00000000E+00  1.33995034E-02  2.51942947E-01 -1.50179783E+00
 -2.51942947E-01  1.50179783E+00  2.51942947E-01 -1.50179783E+00 -2.51942947E-01
  1.50179783E+00  2.42252898E-02 -3.75061169E-01  0.00000000E+00  0.00000000E+00
 -6.12816423E-01  1.74813165E-01  0.00000000E+00  0.00000000E+00  1.42831042E+00
 -8.09628521E-02  1.13558690E-01 -1.07689651E-01  0.00000000E+00  0.00000000E+00